<?xml version="1.0" encoding="UTF-8"?>

<!-- generated on 2025-12-31T11:07:59.233705+05:30 by Eclipse SUMO GUI 1.25.0
<sumoConfiguration xmlns:xsi="http://www.w3.org/2001/XMLSchema-instance" xsi:noNamespaceSchemaLocation="http://sumo.dlr.de/xsd/sumoConfiguration.xsd">

    <input>
        <net-file value="cross.net.xml"/>
        <route-files value="cross.rou.xml"/>
        <additional-files value="cross.add.xml"/>
    </input>

    <output>
        <tripinfo-output value="tripinfo_BASELINE.xml"/>
    </output>

    <time>
        <begin value="0"/>
        <end value="3600"/>
    </time>

    <traci_server>
        <remote-port value="52131"/>
    </traci_server>

    <gui_only>
        <start value="true"/>
    </gui_only>

</sumoConfiguration>
-->

<tripinfos xmlns:xsi="http://www.w3.org/2001/XMLSchema-instance" xsi:noNamespaceSchemaLocation="http://sumo.dlr.de/xsd/tripinfo_file.xsd">
    <tripinfo id="f_W.0" depart="0.00" departLane="W_in_0" departPos="5.10" departSpeed="0.00" departDelay="0.00" arrival="79.00" arrivalLane="E_out_0" arrivalPos="489.60" arrivalSpeed="12.76" duration="79.00" routeLength="994.90" waitingTime="0.00" waitingCount="0" stopTime="0.00" timeLoss="6.87" rerouteNo="0" devices="tripinfo_f_W.0" vType="car" speedFactor="1.06" vaporized=""/>
    <tripinfo id="f_E.0" depart="0.00" departLane="E_in_0" departPos="5.10" departSpeed="0.00" departDelay="0.00" arrival="79.00" arrivalLane="W_out_0" arrivalPos="489.60" arrivalSpeed="13.41" duration="79.00" routeLength="994.90" waitingTime="0.00" waitingCount="0" stopTime="0.00" timeLoss="6.59" rerouteNo="0" devices="tripinfo_f_E.0" vType="car" speedFactor="1.08" vaporized=""/>
    <tripinfo id="f_S.0" depart="0.00" departLane="S_in_0" departPos="5.10" departSpeed="0.00" departDelay="0.00" arrival="85.00" arrivalLane="N_out_0" arrivalPos="489.60" arrivalSpeed="13.39" duration="85.00" routeLength="994.90" waitingTime="0.00" waitingCount="0" stopTime="0.00" timeLoss="12.55" rerouteNo="0" devices="tripinfo_f_S.0" vType="car" speedFactor="1.05" vaporized=""/>
    <tripinfo id="f_N_R.0" depart="6.00" departLane="N_in_0" departPos="5.10" departSpeed="0.00" departDelay="6.00" arrival="87.00" arrivalLane="E_out_0" arrivalPos="489.60" arrivalSpeed="12.98" duration="81.00" routeLength="993.45" waitingTime="0.00" waitingCount="0" stopTime="0.00" timeLoss="8.78" rerouteNo="0" devices="tripinfo_f_N_R.0" vType="car" speedFactor="1.03" vaporized=""/>
    <tripinfo id="f_N_L.0" depart="3.00" departLane="N_in_0" departPos="5.10" departSpeed="0.00" departDelay="3.00" arrival="88.00" arrivalLane="W_out_0" arrivalPos="489.60" arrivalSpeed="13.80" duration="85.00" routeLength="983.13" waitingTime="0.00" waitingCount="0" stopTime="0.00" timeLoss="13.47" rerouteNo="0" devices="tripinfo_f_N_L.0" vType="car" speedFactor="1.09" vaporized=""/>
    <tripinfo id="f_S_R.0" depart="6.00" departLane="S_in_0" departPos="5.10" departSpeed="0.00" departDelay="6.00" arrival="92.00" arrivalLane="W_out_0" arrivalPos="489.60" arrivalSpeed="12.53" duration="86.00" routeLength="993.45" waitingTime="0.00" waitingCount="0" stopTime="0.00" timeLoss="8.76" rerouteNo="0" devices="tripinfo_f_S_R.0" vType="car" speedFactor="0.94" vaporized=""/>
    <tripinfo id="f_N.0" depart="0.00" departLane="N_in_0" departPos="5.10" departSpeed="0.00" departDelay="0.00" arrival="92.00" arrivalLane="S_out_0" arrivalPos="489.60" arrivalSpeed="11.71" duration="92.00" routeLength="994.90" waitingTime="0.00" waitingCount="0" stopTime="0.00" timeLoss="7.64" rerouteNo="0" devices="tripinfo_f_N.0" vType="car" speedFactor="0.86" vaporized=""/>
    <tripinfo id="f_S_L.0" depart="3.00" departLane="S_in_0" departPos="5.10" departSpeed="0.00" departDelay="3.00" arrival="93.00" arrivalLane="E_out_0" arrivalPos="489.60" arrivalSpeed="12.07" duration="90.00" routeLength="983.13" waitingTime="0.00" waitingCount="0" stopTime="0.00" timeLoss="8.53" rerouteNo="0" devices="tripinfo_f_S_L.0" vType="car" speedFactor="0.89" vaporized=""/>
    <tripinfo id="f_S.1" depart="18.00" departLane="S_in_0" departPos="5.10" departSpeed="0.00" departDelay="0.00" arrival="98.00" arrivalLane="N_out_0" arrivalPos="489.60" arrivalSpeed="12.56" duration="80.00" routeLength="994.90" waitingTime="0.00" waitingCount="0" stopTime="0.00" timeLoss="7.12" rerouteNo="0" devices="tripinfo_f_S.1" vType="car" speedFactor="0.99" vaporized=""/>
    <tripinfo id="f_N.1" depart="18.00" departLane="N_in_0" departPos="5.10" departSpeed="0.00" departDelay="0.00" arrival="102.00" arrivalLane="S_out_0" arrivalPos="489.60" arrivalSpeed="11.83" duration="84.00" routeLength="994.90" waitingTime="0.00" waitingCount="0" stopTime="0.00" timeLoss="6.53" rerouteNo="0" devices="tripinfo_f_N.1" vType="car" speedFactor="0.93" vaporized=""/>
    <tripinfo id="f_W_R.0" depart="6.00" departLane="W_in_0" departPos="5.10" departSpeed="0.00" departDelay="6.00" arrival="118.00" arrivalLane="S_out_0" arrivalPos="489.60" arrivalSpeed="13.82" duration="112.00" routeLength="983.13" waitingTime="29.00" waitingCount="1" stopTime="0.00" timeLoss="39.88" rerouteNo="0" devices="tripinfo_f_W_R.0" vType="car" speedFactor="1.01" vaporized=""/>
    <tripinfo id="f_W.1" depart="18.00" departLane="W_in_0" departPos="5.10" departSpeed="0.00" departDelay="0.00" arrival="121.00" arrivalLane="E_out_0" arrivalPos="489.60" arrivalSpeed="13.22" duration="103.00" routeLength="994.90" waitingTime="19.00" waitingCount="1" stopTime="0.00" timeLoss="30.94" rerouteNo="0" devices="tripinfo_f_W.1" vType="car" speedFactor="1.05" vaporized=""/>
    <tripinfo id="f_E.1" depart="18.00" departLane="E_in_0" departPos="5.10" departSpeed="0.00" departDelay="0.00" arrival="121.00" arrivalLane="W_out_0" arrivalPos="489.60" arrivalSpeed="13.87" duration="103.00" routeLength="994.90" waitingTime="20.00" waitingCount="1" stopTime="0.00" timeLoss="30.58" rerouteNo="0" devices="tripinfo_f_E.1" vType="car" speedFactor="1.12" vaporized=""/>
    <tripinfo id="f_E_L.0" depart="3.00" departLane="E_in_0" departPos="5.10" departSpeed="0.00" departDelay="3.00" arrival="124.00" arrivalLane="S_out_0" arrivalPos="489.60" arrivalSpeed="13.42" duration="121.00" routeLength="993.45" waitingTime="33.00" waitingCount="2" stopTime="0.00" timeLoss="48.91" rerouteNo="0" devices="tripinfo_f_E_L.0" vType="car" speedFactor="1.03" vaporized=""/>
    <tripinfo id="f_E_R.0" depart="6.00" departLane="E_in_0" departPos="5.10" departSpeed="0.00" departDelay="6.00" arrival="126.00" arrivalLane="N_out_0" arrivalPos="489.60" arrivalSpeed="11.28" duration="120.00" routeLength="983.13" waitingTime="23.00" waitingCount="1" stopTime="0.00" timeLoss="33.49" rerouteNo="0" devices="tripinfo_f_E_R.0" vType="car" speedFactor="0.83" vaporized=""/>
    <tripinfo id="f_E.2" depart="36.00" departLane="E_in_0" departPos="5.10" departSpeed="0.00" departDelay="0.00" arrival="129.00" arrivalLane="W_out_0" arrivalPos="489.60" arrivalSpeed="12.00" duration="93.00" routeLength="994.90" waitingTime="2.00" waitingCount="1" stopTime="0.00" timeLoss="16.12" rerouteNo="0" devices="tripinfo_f_E.2" vType="car" speedFactor="0.94" vaporized=""/>
    <tripinfo id="f_E.3" depart="54.00" departLane="E_in_0" departPos="5.10" departSpeed="0.00" departDelay="0.00" arrival="132.00" arrivalLane="W_out_0" arrivalPos="489.60" arrivalSpeed="13.57" duration="78.00" routeLength="994.90" waitingTime="0.00" waitingCount="0" stopTime="0.00" timeLoss="6.30" rerouteNo="0" devices="tripinfo_f_E.3" vType="car" speedFactor="1.01" vaporized=""/>
    <tripinfo id="f_W.2" depart="36.00" departLane="W_in_0" departPos="5.10" departSpeed="0.00" departDelay="0.00" arrival="133.00" arrivalLane="E_out_0" arrivalPos="489.60" arrivalSpeed="12.16" duration="97.00" routeLength="994.90" waitingTime="2.00" waitingCount="1" stopTime="0.00" timeLoss="14.54" rerouteNo="0" devices="tripinfo_f_W.2" vType="car" speedFactor="0.88" vaporized=""/>
    <tripinfo id="f_W.3" depart="54.00" departLane="W_in_0" departPos="5.10" departSpeed="0.00" departDelay="0.00" arrival="133.00" arrivalLane="E_out_1" arrivalPos="489.60" arrivalSpeed="13.02" duration="79.00" routeLength="994.90" waitingTime="0.00" waitingCount="0" stopTime="0.00" timeLoss="6.86" rerouteNo="0" devices="tripinfo_f_W.3" vType="car" speedFactor="1.02" vaporized=""/>
    <tripinfo id="f_W_L.0" depart="3.00" departLane="W_in_0" departPos="5.10" departSpeed="0.00" departDelay="3.00" arrival="139.00" arrivalLane="N_out_0" arrivalPos="489.60" arrivalSpeed="12.84" duration="136.00" routeLength="993.45" waitingTime="44.00" waitingCount="2" stopTime="0.00" timeLoss="58.20" rerouteNo="0" devices="tripinfo_f_W_L.0" vType="car" speedFactor="0.94" vaporized=""/>
    <tripinfo id="f_N.2" depart="36.00" departLane="N_in_0" departPos="5.10" departSpeed="0.00" departDelay="0.00" arrival="150.00" arrivalLane="S_out_0" arrivalPos="489.60" arrivalSpeed="12.79" duration="114.00" routeLength="994.90" waitingTime="29.00" waitingCount="1" stopTime="0.00" timeLoss="42.28" rerouteNo="0" devices="tripinfo_f_N.2" vType="car" speedFactor="1.16" vaporized=""/>
    <tripinfo id="f_S.3" depart="54.00" departLane="S_in_0" departPos="5.10" departSpeed="0.00" departDelay="0.00" arrival="150.00" arrivalLane="N_out_0" arrivalPos="489.60" arrivalSpeed="12.71" duration="96.00" routeLength="994.90" waitingTime="12.00" waitingCount="1" stopTime="0.00" timeLoss="22.53" rerouteNo="0" devices="tripinfo_f_S.3" vType="car" speedFactor="0.97" vaporized=""/>
    <tripinfo id="f_S.4" depart="72.00" departLane="S_in_0" departPos="5.10" departSpeed="0.00" departDelay="0.00" arrival="152.00" arrivalLane="N_out_1" arrivalPos="489.60" arrivalSpeed="12.88" duration="80.00" routeLength="994.90" waitingTime="0.00" waitingCount="0" stopTime="0.00" timeLoss="7.59" rerouteNo="0" devices="tripinfo_f_S.4" vType="car" speedFactor="1.18" vaporized=""/>
    <tripinfo id="f_S.2" depart="36.00" departLane="S_in_0" departPos="5.10" departSpeed="0.00" departDelay="0.00" arrival="153.00" arrivalLane="N_out_0" arrivalPos="489.60" arrivalSpeed="12.49" duration="117.00" routeLength="994.90" waitingTime="27.00" waitingCount="1" stopTime="0.00" timeLoss="39.64" rerouteNo="0" devices="tripinfo_f_S.2" vType="car" speedFactor="0.94" vaporized=""/>
    <tripinfo id="f_N.4" depart="72.00" departLane="N_in_0" departPos="5.10" departSpeed="0.00" departDelay="0.00" arrival="153.00" arrivalLane="S_out_0" arrivalPos="489.60" arrivalSpeed="12.69" duration="81.00" routeLength="994.90" waitingTime="0.00" waitingCount="0" stopTime="0.00" timeLoss="9.10" rerouteNo="0" devices="tripinfo_f_N.4" vType="car" speedFactor="1.17" vaporized=""/>
    <tripinfo id="f_N.3" depart="54.00" departLane="N_in_0" departPos="5.10" departSpeed="0.00" departDelay="0.00" arrival="155.00" arrivalLane="S_out_0" arrivalPos="489.60" arrivalSpeed="11.84" duration="101.00" routeLength="994.90" waitingTime="8.00" waitingCount="1" stopTime="0.00" timeLoss="20.29" rerouteNo="0" devices="tripinfo_f_N.3" vType="car" speedFactor="0.89" vaporized=""/>
    <tripinfo id="f_S_L.1" depart="75.00" departLane="S_in_0" departPos="5.10" departSpeed="0.00" departDelay="3.00" arrival="155.00" arrivalLane="E_out_0" arrivalPos="489.60" arrivalSpeed="12.76" duration="80.00" routeLength="983.13" waitingTime="0.00" waitingCount="0" stopTime="0.00" timeLoss="8.42" rerouteNo="0" devices="tripinfo_f_S_L.1" vType="car" speedFactor="1.15" vaporized=""/>
    <tripinfo id="f_N_L.1" depart="75.00" departLane="N_in_0" departPos="5.10" departSpeed="0.00" departDelay="3.00" arrival="156.00" arrivalLane="W_out_0" arrivalPos="489.60" arrivalSpeed="12.57" duration="81.00" routeLength="983.13" waitingTime="0.00" waitingCount="0" stopTime="0.00" timeLoss="9.01" rerouteNo="0" devices="tripinfo_f_N_L.1" vType="car" speedFactor="0.99" vaporized=""/>
    <tripinfo id="f_S_R.1" depart="78.00" departLane="S_in_0" departPos="5.10" departSpeed="0.00" departDelay="6.00" arrival="159.00" arrivalLane="W_out_0" arrivalPos="489.60" arrivalSpeed="13.37" duration="81.00" routeLength="993.45" waitingTime="0.00" waitingCount="0" stopTime="0.00" timeLoss="8.19" rerouteNo="0" devices="tripinfo_f_S_R.1" vType="car" speedFactor="1.01" vaporized=""/>
    <tripinfo id="f_N_R.1" depart="78.00" departLane="N_in_0" departPos="5.10" departSpeed="0.00" departDelay="6.00" arrival="159.00" arrivalLane="E_out_0" arrivalPos="489.60" arrivalSpeed="13.80" duration="81.00" routeLength="993.45" waitingTime="0.00" waitingCount="0" stopTime="0.00" timeLoss="7.70" rerouteNo="0" devices="tripinfo_f_N_R.1" vType="car" speedFactor="1.02" vaporized=""/>
    <tripinfo id="f_S.5" depart="90.00" departLane="S_in_0" departPos="5.10" departSpeed="0.00" departDelay="0.00" arrival="169.00" arrivalLane="N_out_0" arrivalPos="489.60" arrivalSpeed="12.69" duration="79.00" routeLength="994.90" waitingTime="0.00" waitingCount="0" stopTime="0.00" timeLoss="6.60" rerouteNo="0" devices="tripinfo_f_S.5" vType="car" speedFactor="1.10" vaporized=""/>
    <tripinfo id="f_N.5" depart="90.00" departLane="N_in_0" departPos="5.10" departSpeed="0.00" departDelay="0.00" arrival="177.00" arrivalLane="S_out_0" arrivalPos="489.60" arrivalSpeed="12.51" duration="87.00" routeLength="994.90" waitingTime="0.00" waitingCount="0" stopTime="0.00" timeLoss="7.29" rerouteNo="0" devices="tripinfo_f_N.5" vType="car" speedFactor="0.90" vaporized=""/>
    <tripinfo id="f_E.4" depart="72.00" departLane="E_in_0" departPos="5.10" departSpeed="0.00" departDelay="0.00" arrival="190.00" arrivalLane="W_out_0" arrivalPos="489.60" arrivalSpeed="11.95" duration="118.00" routeLength="994.90" waitingTime="30.00" waitingCount="1" stopTime="0.00" timeLoss="41.93" rerouteNo="0" devices="tripinfo_f_E.4" vType="car" speedFactor="0.95" vaporized=""/>
    <tripinfo id="f_W.6" depart="108.00" departLane="W_in_0" departPos="5.10" departSpeed="0.00" departDelay="0.00" arrival="192.00" arrivalLane="E_out_0" arrivalPos="489.60" arrivalSpeed="13.17" duration="84.00" routeLength="994.90" waitingTime="0.00" waitingCount="0" stopTime="0.00" timeLoss="12.21" rerouteNo="0" devices="tripinfo_f_W.6" vType="car" speedFactor="1.03" vaporized=""/>
    <tripinfo id="f_E_R.1" depart="78.00" departLane="E_in_0" departPos="5.10" departSpeed="0.00" departDelay="6.00" arrival="193.00" arrivalLane="N_out_0" arrivalPos="489.60" arrivalSpeed="12.66" duration="115.00" routeLength="983.13" waitingTime="25.00" waitingCount="1" stopTime="0.00" timeLoss="37.32" rerouteNo="0" devices="tripinfo_f_E_R.1" vType="car" speedFactor="0.93" vaporized=""/>
    <tripinfo id="f_W_R.1" depart="78.00" departLane="W_in_0" departPos="5.10" departSpeed="0.00" departDelay="6.00" arrival="194.00" arrivalLane="S_out_0" arrivalPos="489.60" arrivalSpeed="12.20" duration="116.00" routeLength="983.13" waitingTime="22.00" waitingCount="1" stopTime="0.00" timeLoss="37.21" rerouteNo="0" devices="tripinfo_f_W_R.1" vType="car" speedFactor="0.92" vaporized=""/>
    <tripinfo id="f_E.6" depart="108.00" departLane="E_in_0" departPos="5.10" departSpeed="0.00" departDelay="0.00" arrival="194.00" arrivalLane="W_out_0" arrivalPos="489.60" arrivalSpeed="13.23" duration="86.00" routeLength="994.90" waitingTime="0.00" waitingCount="0" stopTime="0.00" timeLoss="10.59" rerouteNo="0" devices="tripinfo_f_E.6" vType="car" speedFactor="0.96" vaporized=""/>
    <tripinfo id="f_W.4" depart="72.00" departLane="W_in_0" departPos="5.10" departSpeed="0.00" departDelay="0.00" arrival="196.00" arrivalLane="E_out_0" arrivalPos="489.60" arrivalSpeed="10.53" duration="124.00" routeLength="994.90" waitingTime="24.00" waitingCount="1" stopTime="0.00" timeLoss="36.71" rerouteNo="0" devices="tripinfo_f_W.4" vType="car" speedFactor="0.83" vaporized=""/>
    <tripinfo id="f_E.5" depart="90.00" departLane="E_in_0" departPos="5.10" departSpeed="0.00" departDelay="0.00" arrival="196.00" arrivalLane="W_out_0" arrivalPos="489.60" arrivalSpeed="13.55" duration="106.00" routeLength="994.90" waitingTime="18.00" waitingCount="2" stopTime="0.00" timeLoss="33.74" rerouteNo="0" devices="tripinfo_f_E.5" vType="car" speedFactor="1.18" vaporized=""/>
    <tripinfo id="f_W.5" depart="90.00" departLane="W_in_0" departPos="5.10" departSpeed="0.00" departDelay="0.00" arrival="197.00" arrivalLane="E_out_1" arrivalPos="489.60" arrivalSpeed="12.32" duration="107.00" routeLength="994.90" waitingTime="18.00" waitingCount="2" stopTime="0.00" timeLoss="33.42" rerouteNo="0" devices="tripinfo_f_W.5" vType="car" speedFactor="0.97" vaporized=""/>
    <tripinfo id="f_E_L.1" depart="75.00" departLane="E_in_0" departPos="5.10" departSpeed="0.00" departDelay="3.00" arrival="201.00" arrivalLane="S_out_0" arrivalPos="489.60" arrivalSpeed="12.75" duration="126.00" routeLength="993.45" waitingTime="41.00" waitingCount="2" stopTime="0.00" timeLoss="53.29" rerouteNo="0" devices="tripinfo_f_E_L.1" vType="car" speedFactor="1.13" vaporized=""/>
    <tripinfo id="f_E.7" depart="126.00" departLane="E_in_0" departPos="5.10" departSpeed="0.00" departDelay="0.00" arrival="204.00" arrivalLane="W_out_0" arrivalPos="489.60" arrivalSpeed="13.53" duration="78.00" routeLength="994.90" waitingTime="0.00" waitingCount="0" stopTime="0.00" timeLoss="6.41" rerouteNo="0" devices="tripinfo_f_E.7" vType="car" speedFactor="1.09" vaporized=""/>
    <tripinfo id="f_W_L.1" depart="75.00" departLane="W_in_0" departPos="5.10" departSpeed="0.00" departDelay="3.00" arrival="205.00" arrivalLane="N_out_0" arrivalPos="489.60" arrivalSpeed="11.14" duration="130.00" routeLength="993.45" waitingTime="32.00" waitingCount="2" stopTime="0.00" timeLoss="46.67" rerouteNo="0" devices="tripinfo_f_W_L.1" vType="car" speedFactor="0.87" vaporized=""/>
    <tripinfo id="f_W.7" depart="126.00" departLane="W_in_0" departPos="5.10" departSpeed="0.00" departDelay="0.00" arrival="205.00" arrivalLane="E_out_0" arrivalPos="489.60" arrivalSpeed="12.73" duration="79.00" routeLength="994.90" waitingTime="0.00" waitingCount="0" stopTime="0.00" timeLoss="6.73" rerouteNo="0" devices="tripinfo_f_W.7" vType="car" speedFactor="1.04" vaporized=""/>
    <tripinfo id="f_E.8" depart="144.00" departLane="E_in_0" departPos="5.10" departSpeed="0.00" departDelay="0.00" arrival="222.00" arrivalLane="W_out_0" arrivalPos="489.60" arrivalSpeed="13.43" duration="78.00" routeLength="994.90" waitingTime="0.00" waitingCount="0" stopTime="0.00" timeLoss="6.32" rerouteNo="0" devices="tripinfo_f_E.8" vType="car" speedFactor="1.17" vaporized=""/>
    <tripinfo id="f_E_L.2" depart="147.00" departLane="E_in_0" departPos="5.10" departSpeed="0.00" departDelay="3.00" arrival="231.00" arrivalLane="S_out_0" arrivalPos="489.60" arrivalSpeed="13.40" duration="84.00" routeLength="993.45" waitingTime="2.00" waitingCount="1" stopTime="0.00" timeLoss="11.64" rerouteNo="0" devices="tripinfo_f_E_L.2" vType="car" speedFactor="1.02" vaporized=""/>
    <tripinfo id="f_S.6" depart="108.00" departLane="S_in_0" departPos="5.10" departSpeed="0.00" departDelay="0.00" arrival="233.00" arrivalLane="N_out_0" arrivalPos="489.60" arrivalSpeed="12.71" duration="125.00" routeLength="994.90" waitingTime="40.00" waitingCount="1" stopTime="0.00" timeLoss="53.30" rerouteNo="0" devices="tripinfo_f_S.6" vType="car" speedFactor="1.09" vaporized=""/>
    <tripinfo id="f_N.6" depart="108.00" departLane="N_in_0" departPos="5.10" departSpeed="0.00" departDelay="0.00" arrival="233.00" arrivalLane="S_out_0" arrivalPos="489.60" arrivalSpeed="13.46" duration="125.00" routeLength="994.90" waitingTime="41.00" waitingCount="1" stopTime="0.00" timeLoss="53.07" rerouteNo="0" devices="tripinfo_f_N.6" vType="car" speedFactor="1.04" vaporized=""/>
    <tripinfo id="f_W.8" depart="144.00" departLane="W_in_0" departPos="5.10" departSpeed="0.00" departDelay="0.00" arrival="233.00" arrivalLane="E_out_0" arrivalPos="489.60" arrivalSpeed="11.68" duration="89.00" routeLength="994.90" waitingTime="0.00" waitingCount="0" stopTime="0.00" timeLoss="7.12" rerouteNo="0" devices="tripinfo_f_W.8" vType="car" speedFactor="0.88" vaporized=""/>
    <tripinfo id="f_S.7" depart="126.00" departLane="S_in_0" departPos="5.10" departSpeed="0.00" departDelay="0.00" arrival="234.00" arrivalLane="N_out_1" arrivalPos="489.60" arrivalSpeed="13.19" duration="108.00" routeLength="994.90" waitingTime="23.00" waitingCount="1" stopTime="0.00" timeLoss="36.02" rerouteNo="0" devices="tripinfo_f_S.7" vType="car" speedFactor="1.00" vaporized=""/>
    <tripinfo id="f_S.8" depart="144.00" departLane="S_in_0" departPos="5.10" departSpeed="0.00" departDelay="0.00" arrival="235.00" arrivalLane="N_out_0" arrivalPos="489.60" arrivalSpeed="13.78" duration="91.00" routeLength="994.90" waitingTime="7.00" waitingCount="1" stopTime="0.00" timeLoss="19.02" rerouteNo="0" devices="tripinfo_f_S.8" vType="car" speedFactor="1.00" vaporized=""/>
    <tripinfo id="f_N.8" depart="144.00" departLane="N_in_0" departPos="5.10" departSpeed="0.00" departDelay="0.00" arrival="235.00" arrivalLane="S_out_0" arrivalPos="489.60" arrivalSpeed="13.52" duration="91.00" routeLength="994.90" waitingTime="7.00" waitingCount="1" stopTime="0.00" timeLoss="18.95" rerouteNo="0" devices="tripinfo_f_N.8" vType="car" speedFactor="1.14" vaporized=""/>
    <tripinfo id="f_N_L.2" depart="147.00" departLane="N_in_0" departPos="5.10" departSpeed="0.00" departDelay="3.00" arrival="237.00" arrivalLane="W_out_0" arrivalPos="489.60" arrivalSpeed="12.80" duration="90.00" routeLength="983.13" waitingTime="5.00" waitingCount="1" stopTime="0.00" timeLoss="18.14" rerouteNo="0" devices="tripinfo_f_N_L.2" vType="car" speedFactor="1.02" vaporized=""/>
    <tripinfo id="f_N.7" depart="126.00" departLane="N_in_0" departPos="5.10" departSpeed="0.00" departDelay="0.00" arrival="238.00" arrivalLane="S_out_0" arrivalPos="489.60" arrivalSpeed="12.48" duration="112.00" routeLength="994.90" waitingTime="18.00" waitingCount="1" stopTime="0.00" timeLoss="31.55" rerouteNo="0" devices="tripinfo_f_N.7" vType="car" speedFactor="0.90" vaporized=""/>
    <tripinfo id="f_S_L.2" depart="147.00" departLane="S_in_0" departPos="5.10" departSpeed="0.00" departDelay="3.00" arrival="238.00" arrivalLane="E_out_0" arrivalPos="489.60" arrivalSpeed="13.05" duration="91.00" routeLength="983.13" waitingTime="5.00" waitingCount="1" stopTime="0.00" timeLoss="19.10" rerouteNo="0" devices="tripinfo_f_S_L.2" vType="car" speedFactor="1.00" vaporized=""/>
    <tripinfo id="f_S_R.2" depart="150.00" departLane="S_in_0" departPos="5.10" departSpeed="0.00" departDelay="6.00" arrival="242.00" arrivalLane="W_out_0" arrivalPos="489.60" arrivalSpeed="11.85" duration="92.00" routeLength="993.45" waitingTime="0.00" waitingCount="0" stopTime="0.00" timeLoss="11.09" rerouteNo="0" devices="tripinfo_f_S_R.2" vType="car" speedFactor="0.90" vaporized=""/>
    <tripinfo id="f_N_R.2" depart="150.00" departLane="N_in_0" departPos="5.10" departSpeed="0.00" departDelay="6.00" arrival="244.00" arrivalLane="E_out_0" arrivalPos="489.60" arrivalSpeed="13.35" duration="94.00" routeLength="993.45" waitingTime="5.00" waitingCount="1" stopTime="0.00" timeLoss="19.37" rerouteNo="0" devices="tripinfo_f_N_R.2" vType="car" speedFactor="0.97" vaporized=""/>
    <tripinfo id="f_S.9" depart="162.00" departLane="S_in_0" departPos="5.10" departSpeed="0.00" departDelay="0.00" arrival="246.00" arrivalLane="N_out_0" arrivalPos="489.60" arrivalSpeed="13.21" duration="84.00" routeLength="994.90" waitingTime="1.00" waitingCount="1" stopTime="0.00" timeLoss="12.23" rerouteNo="0" devices="tripinfo_f_S.9" vType="car" speedFactor="1.02" vaporized=""/>
    <tripinfo id="f_N.9" depart="162.00" departLane="N_in_0" departPos="5.10" departSpeed="0.00" departDelay="0.00" arrival="246.00" arrivalLane="S_out_0" arrivalPos="489.60" arrivalSpeed="13.22" duration="84.00" routeLength="994.90" waitingTime="0.00" waitingCount="0" stopTime="0.00" timeLoss="11.43" rerouteNo="0" devices="tripinfo_f_N.9" vType="car" speedFactor="0.99" vaporized=""/>
    <tripinfo id="f_N.10" depart="180.00" departLane="N_in_0" departPos="5.10" departSpeed="0.00" departDelay="0.00" arrival="265.00" arrivalLane="S_out_0" arrivalPos="489.60" arrivalSpeed="11.53" duration="85.00" routeLength="994.90" waitingTime="0.00" waitingCount="0" stopTime="0.00" timeLoss="6.54" rerouteNo="0" devices="tripinfo_f_N.10" vType="car" speedFactor="0.91" vaporized=""/>
    <tripinfo id="f_S.10" depart="180.00" departLane="S_in_0" departPos="5.10" departSpeed="0.00" departDelay="0.00" arrival="267.00" arrivalLane="N_out_0" arrivalPos="489.60" arrivalSpeed="11.99" duration="87.00" routeLength="994.90" waitingTime="0.00" waitingCount="0" stopTime="0.00" timeLoss="7.36" rerouteNo="0" devices="tripinfo_f_S.10" vType="car" speedFactor="0.91" vaporized=""/>
    <tripinfo id="f_E_R.2" depart="150.00" departLane="E_in_0" departPos="5.10" departSpeed="0.00" departDelay="6.00" arrival="276.00" arrivalLane="N_out_0" arrivalPos="489.60" arrivalSpeed="13.41" duration="126.00" routeLength="983.13" waitingTime="42.00" waitingCount="1" stopTime="0.00" timeLoss="54.33" rerouteNo="0" devices="tripinfo_f_E_R.2" vType="car" speedFactor="1.10" vaporized=""/>
    <tripinfo id="f_E.9" depart="162.00" departLane="E_in_0" departPos="5.10" departSpeed="0.00" departDelay="0.00" arrival="277.00" arrivalLane="W_out_0" arrivalPos="489.60" arrivalSpeed="12.60" duration="115.00" routeLength="994.90" waitingTime="32.00" waitingCount="1" stopTime="0.00" timeLoss="43.19" rerouteNo="0" devices="tripinfo_f_E.9" vType="car" speedFactor="1.12" vaporized=""/>
    <tripinfo id="f_W.9" depart="162.00" departLane="W_in_0" departPos="5.10" departSpeed="0.00" departDelay="0.00" arrival="279.00" arrivalLane="E_out_0" arrivalPos="489.60" arrivalSpeed="12.91" duration="117.00" routeLength="994.90" waitingTime="34.00" waitingCount="1" stopTime="0.00" timeLoss="44.95" rerouteNo="0" devices="tripinfo_f_W.9" vType="car" speedFactor="1.08" vaporized=""/>
    <tripinfo id="f_E.11" depart="198.00" departLane="E_in_0" departPos="5.10" departSpeed="0.00" departDelay="0.00" arrival="279.00" arrivalLane="W_out_1" arrivalPos="489.60" arrivalSpeed="13.45" duration="81.00" routeLength="994.90" waitingTime="0.00" waitingCount="0" stopTime="0.00" timeLoss="8.71" rerouteNo="0" devices="tripinfo_f_E.11" vType="car" speedFactor="1.02" vaporized=""/>
    <tripinfo id="f_W.11" depart="198.00" departLane="W_in_0" departPos="5.10" departSpeed="0.00" departDelay="0.00" arrival="281.00" arrivalLane="E_out_0" arrivalPos="489.60" arrivalSpeed="13.34" duration="83.00" routeLength="994.90" waitingTime="0.00" waitingCount="0" stopTime="0.00" timeLoss="10.68" rerouteNo="0" devices="tripinfo_f_W.11" vType="car" speedFactor="1.04" vaporized=""/>
    <tripinfo id="f_W_R.2" depart="150.00" departLane="W_in_0" departPos="5.10" departSpeed="0.00" departDelay="6.00" arrival="282.00" arrivalLane="S_out_0" arrivalPos="489.60" arrivalSpeed="11.64" duration="132.00" routeLength="983.13" waitingTime="38.00" waitingCount="1" stopTime="0.00" timeLoss="48.68" rerouteNo="0" devices="tripinfo_f_W_R.2" vType="car" speedFactor="0.85" vaporized=""/>
    <tripinfo id="f_E.10" depart="180.00" departLane="E_in_0" departPos="5.10" departSpeed="0.00" departDelay="0.00" arrival="284.00" arrivalLane="W_out_0" arrivalPos="489.60" arrivalSpeed="11.30" duration="104.00" routeLength="994.90" waitingTime="10.00" waitingCount="1" stopTime="0.00" timeLoss="22.22" rerouteNo="0" devices="tripinfo_f_E.10" vType="car" speedFactor="0.88" vaporized=""/>
    <tripinfo id="f_W.10" depart="180.00" departLane="W_in_0" departPos="5.10" departSpeed="0.00" departDelay="0.00" arrival="288.00" arrivalLane="E_out_0" arrivalPos="489.60" arrivalSpeed="12.04" duration="108.00" routeLength="994.90" waitingTime="15.00" waitingCount="2" stopTime="0.00" timeLoss="30.84" rerouteNo="0" devices="tripinfo_f_W.10" vType="car" speedFactor="0.94" vaporized=""/>
    <tripinfo id="f_W_L.2" depart="147.00" departLane="W_in_0" departPos="5.10" departSpeed="0.00" departDelay="3.00" arrival="290.00" arrivalLane="N_out_0" arrivalPos="489.60" arrivalSpeed="11.22" duration="143.00" routeLength="993.45" waitingTime="44.00" waitingCount="2" stopTime="0.00" timeLoss="57.45" rerouteNo="0" devices="tripinfo_f_W_L.2" vType="car" speedFactor="0.85" vaporized=""/>
    <tripinfo id="f_E.12" depart="216.00" departLane="E_in_0" departPos="5.10" departSpeed="0.00" departDelay="0.00" arrival="295.00" arrivalLane="W_out_0" arrivalPos="489.60" arrivalSpeed="12.86" duration="79.00" routeLength="994.90" waitingTime="0.00" waitingCount="0" stopTime="0.00" timeLoss="5.88" rerouteNo="0" devices="tripinfo_f_E.12" vType="car" speedFactor="0.98" vaporized=""/>
    <tripinfo id="f_W.12" depart="216.00" departLane="W_in_0" departPos="5.10" departSpeed="0.00" departDelay="0.00" arrival="299.00" arrivalLane="E_out_0" arrivalPos="489.60" arrivalSpeed="12.66" duration="83.00" routeLength="994.90" waitingTime="0.00" waitingCount="0" stopTime="0.00" timeLoss="6.69" rerouteNo="0" devices="tripinfo_f_W.12" vType="car" speedFactor="0.94" vaporized=""/>
    <tripinfo id="f_W_L.3" depart="219.00" departLane="W_in_0" departPos="5.10" departSpeed="0.00" departDelay="3.00" arrival="299.00" arrivalLane="N_out_0" arrivalPos="489.60" arrivalSpeed="13.70" duration="80.00" routeLength="993.45" waitingTime="0.00" waitingCount="0" stopTime="0.00" timeLoss="7.30" rerouteNo="0" devices="tripinfo_f_W_L.3" vType="car" speedFactor="1.06" vaporized=""/>
    <tripinfo id="f_E_L.3" depart="219.00" departLane="E_in_0" departPos="5.10" departSpeed="0.00" departDelay="3.00" arrival="300.00" arrivalLane="S_out_0" arrivalPos="489.60" arrivalSpeed="13.58" duration="81.00" routeLength="993.45" waitingTime="0.00" waitingCount="0" stopTime="0.00" timeLoss="8.01" rerouteNo="0" devices="tripinfo_f_E_L.3" vType="car" speedFactor="1.03" vaporized=""/>