<?xml version="1.0" encoding="UTF-8"?>

<!-- generated on 2025-12-31T09:48:24.935930+05:30 by Eclipse SUMO GUI 1.25.0
<sumoConfiguration xmlns:xsi="http://www.w3.org/2001/XMLSchema-instance" xsi:noNamespaceSchemaLocation="http://sumo.dlr.de/xsd/sumoConfiguration.xsd">

    <input>
        <net-file value="cross.net.xml"/>
        <route-files value="cross.rou.xml"/>
        <additional-files value="cross.add.xml"/>
    </input>

    <output>
        <tripinfo-output value="tripinfo_BASELINE.xml"/>
    </output>

    <time>
        <begin value="0"/>
        <end value="3600"/>
    </time>

    <traci_server>
        <remote-port value="63874"/>
    </traci_server>

    <gui_only>
        <start value="true"/>
    </gui_only>

</sumoConfiguration>
-->

<tripinfos xmlns:xsi="http://www.w3.org/2001/XMLSchema-instance" xsi:noNamespaceSchemaLocation="http://sumo.dlr.de/xsd/tripinfo_file.xsd">
    <tripinfo id="f_W.0" depart="0.00" departLane="W_in_0" departPos="5.10" departSpeed="0.00" departDelay="0.00" arrival="79.00" arrivalLane="E_out_0" arrivalPos="489.60" arrivalSpeed="13.35" duration="79.00" routeLength="994.90" waitingTime="0.00" waitingCount="0" stopTime="0.00" timeLoss="6.61" rerouteNo="0" devices="tripinfo_f_W.0" vType="car" speedFactor="1.06" vaporized=""/>
    <tripinfo id="f_E.0" depart="0.00" departLane="E_in_0" departPos="5.10" departSpeed="0.00" departDelay="0.00" arrival="79.00" arrivalLane="W_out_0" arrivalPos="489.60" arrivalSpeed="12.62" duration="79.00" routeLength="994.90" waitingTime="0.00" waitingCount="0" stopTime="0.00" timeLoss="6.56" rerouteNo="0" devices="tripinfo_f_E.0" vType="car" speedFactor="1.08" vaporized=""/>
    <tripinfo id="f_E_L.0" depart="3.00" departLane="E_in_0" departPos="5.10" departSpeed="0.00" departDelay="3.00" arrival="84.00" arrivalLane="S_out_0" arrivalPos="489.60" arrivalSpeed="12.92" duration="81.00" routeLength="993.45" waitingTime="0.00" waitingCount="0" stopTime="0.00" timeLoss="8.16" rerouteNo="0" devices="tripinfo_f_E_L.0" vType="car" speedFactor="1.03" vaporized=""/>
    <tripinfo id="f_W_R.0" depart="6.00" departLane="W_in_0" departPos="5.10" departSpeed="0.00" departDelay="6.00" arrival="86.00" arrivalLane="S_out_0" arrivalPos="489.60" arrivalSpeed="13.70" duration="80.00" routeLength="983.13" waitingTime="0.00" waitingCount="0" stopTime="0.00" timeLoss="8.22" rerouteNo="0" devices="tripinfo_f_W_R.0" vType="car" speedFactor="1.01" vaporized=""/>
    <tripinfo id="f_W_L.0" depart="3.00" departLane="W_in_0" departPos="5.10" departSpeed="0.00" departDelay="3.00" arrival="88.00" arrivalLane="N_out_0" arrivalPos="489.60" arrivalSpeed="11.82" duration="85.00" routeLength="993.45" waitingTime="0.00" waitingCount="0" stopTime="0.00" timeLoss="7.98" rerouteNo="0" devices="tripinfo_f_W_L.0" vType="car" speedFactor="0.94" vaporized=""/>
    <tripinfo id="f_W.1" depart="18.00" departLane="W_in_0" departPos="5.10" departSpeed="0.00" departDelay="0.00" arrival="97.00" arrivalLane="E_out_0" arrivalPos="489.60" arrivalSpeed="12.98" duration="79.00" routeLength="994.90" waitingTime="0.00" waitingCount="0" stopTime="0.00" timeLoss="6.74" rerouteNo="0" devices="tripinfo_f_W.1" vType="car" speedFactor="1.05" vaporized=""/>
    <tripinfo id="f_E.1" depart="18.00" departLane="E_in_0" departPos="5.10" departSpeed="0.00" departDelay="0.00" arrival="97.00" arrivalLane="W_out_0" arrivalPos="489.60" arrivalSpeed="12.98" duration="79.00" routeLength="994.90" waitingTime="0.00" waitingCount="0" stopTime="0.00" timeLoss="6.64" rerouteNo="0" devices="tripinfo_f_E.1" vType="car" speedFactor="1.12" vaporized=""/>
    <tripinfo id="f_E_R.0" depart="6.00" departLane="E_in_0" departPos="5.10" departSpeed="0.00" departDelay="6.00" arrival="101.00" arrivalLane="N_out_0" arrivalPos="489.60" arrivalSpeed="10.40" duration="95.00" routeLength="983.13" waitingTime="0.00" waitingCount="0" stopTime="0.00" timeLoss="8.03" rerouteNo="0" devices="tripinfo_f_E_R.0" vType="car" speedFactor="0.83" vaporized=""/>
    <tripinfo id="f_S.0" depart="0.00" departLane="S_in_0" departPos="5.10" departSpeed="0.00" departDelay="0.00" arrival="108.00" arrivalLane="N_out_0" arrivalPos="489.60" arrivalSpeed="12.83" duration="108.00" routeLength="994.90" waitingTime="23.00" waitingCount="1" stopTime="0.00" timeLoss="35.89" rerouteNo="0" devices="tripinfo_f_S.0" vType="car" speedFactor="1.05" vaporized=""/>
    <tripinfo id="f_N_L.0" depart="3.00" departLane="N_in_0" departPos="5.10" departSpeed="0.00" departDelay="3.00" arrival="110.00" arrivalLane="W_out_0" arrivalPos="489.60" arrivalSpeed="13.82" duration="107.00" routeLength="983.13" waitingTime="17.00" waitingCount="1" stopTime="0.00" timeLoss="35.47" rerouteNo="0" devices="tripinfo_f_N_L.0" vType="car" speedFactor="1.09" vaporized=""/>
    <tripinfo id="f_N_R.0" depart="6.00" departLane="N_in_0" departPos="5.10" departSpeed="0.00" departDelay="6.00" arrival="111.00" arrivalLane="E_out_0" arrivalPos="489.60" arrivalSpeed="13.02" duration="105.00" routeLength="993.45" waitingTime="21.00" waitingCount="2" stopTime="0.00" timeLoss="32.81" rerouteNo="0" devices="tripinfo_f_N_R.0" vType="car" speedFactor="1.03" vaporized=""/>
    <tripinfo id="f_S_R.0" depart="6.00" departLane="S_in_0" departPos="5.10" departSpeed="0.00" departDelay="6.00" arrival="114.00" arrivalLane="W_out_0" arrivalPos="489.60" arrivalSpeed="12.29" duration="108.00" routeLength="993.45" waitingTime="16.00" waitingCount="2" stopTime="0.00" timeLoss="31.07" rerouteNo="0" devices="tripinfo_f_S_R.0" vType="car" speedFactor="0.94" vaporized=""/>
    <tripinfo id="f_N.0" depart="0.00" departLane="N_in_0" departPos="5.10" departSpeed="0.00" departDelay="0.00" arrival="114.00" arrivalLane="S_out_0" arrivalPos="489.60" arrivalSpeed="11.83" duration="114.00" routeLength="994.90" waitingTime="18.00" waitingCount="1" stopTime="0.00" timeLoss="30.35" rerouteNo="0" devices="tripinfo_f_N.0" vType="car" speedFactor="0.86" vaporized=""/>
    <tripinfo id="f_S.1" depart="18.00" departLane="S_in_0" departPos="5.10" departSpeed="0.00" departDelay="0.00" arrival="114.00" arrivalLane="N_out_0" arrivalPos="489.60" arrivalSpeed="12.58" duration="96.00" routeLength="994.90" waitingTime="6.00" waitingCount="1" stopTime="0.00" timeLoss="23.23" rerouteNo="0" devices="tripinfo_f_S.1" vType="car" speedFactor="0.99" vaporized=""/>
    <tripinfo id="f_N.2" depart="36.00" departLane="N_in_0" departPos="5.10" departSpeed="0.00" departDelay="0.00" arrival="114.00" arrivalLane="S_out_1" arrivalPos="489.60" arrivalSpeed="13.41" duration="78.00" routeLength="994.90" waitingTime="0.00" waitingCount="0" stopTime="0.00" timeLoss="6.18" rerouteNo="0" devices="tripinfo_f_N.2" vType="car" speedFactor="1.16" vaporized=""/>
    <tripinfo id="f_S_L.0" depart="3.00" departLane="S_in_0" departPos="5.10" departSpeed="0.00" departDelay="3.00" arrival="115.00" arrivalLane="E_out_0" arrivalPos="489.60" arrivalSpeed="11.99" duration="112.00" routeLength="983.13" waitingTime="18.00" waitingCount="1" stopTime="0.00" timeLoss="30.61" rerouteNo="0" devices="tripinfo_f_S_L.0" vType="car" speedFactor="0.89" vaporized=""/>
    <tripinfo id="f_N.1" depart="18.00" departLane="N_in_0" departPos="5.10" departSpeed="0.00" departDelay="0.00" arrival="117.00" arrivalLane="S_out_0" arrivalPos="489.60" arrivalSpeed="12.16" duration="99.00" routeLength="994.90" waitingTime="5.00" waitingCount="1" stopTime="0.00" timeLoss="21.15" rerouteNo="0" devices="tripinfo_f_N.1" vType="car" speedFactor="0.93" vaporized=""/>
    <tripinfo id="f_S.2" depart="36.00" departLane="S_in_0" departPos="5.10" departSpeed="0.00" departDelay="0.00" arrival="119.00" arrivalLane="N_out_0" arrivalPos="489.60" arrivalSpeed="13.01" duration="83.00" routeLength="994.90" waitingTime="0.00" waitingCount="0" stopTime="0.00" timeLoss="6.48" rerouteNo="0" devices="tripinfo_f_S.2" vType="car" speedFactor="0.94" vaporized=""/>
    <tripinfo id="f_W.3" depart="54.00" departLane="W_in_0" departPos="5.10" departSpeed="0.00" departDelay="0.00" arrival="134.00" arrivalLane="E_out_0" arrivalPos="489.60" arrivalSpeed="12.63" duration="80.00" routeLength="994.90" waitingTime="0.00" waitingCount="0" stopTime="0.00" timeLoss="8.01" rerouteNo="0" devices="tripinfo_f_W.3" vType="car" speedFactor="1.02" vaporized=""/>
    <tripinfo id="f_E.3" depart="54.00" departLane="E_in_0" departPos="5.10" departSpeed="0.00" departDelay="0.00" arrival="134.00" arrivalLane="W_out_0" arrivalPos="489.60" arrivalSpeed="12.92" duration="80.00" routeLength="994.90" waitingTime="0.00" waitingCount="0" stopTime="0.00" timeLoss="7.51" rerouteNo="0" devices="tripinfo_f_E.3" vType="car" speedFactor="1.01" vaporized=""/>
    <tripinfo id="f_E.2" depart="36.00" departLane="E_in_0" departPos="5.10" departSpeed="0.00" departDelay="0.00" arrival="138.00" arrivalLane="W_out_0" arrivalPos="489.60" arrivalSpeed="12.43" duration="102.00" routeLength="994.90" waitingTime="14.00" waitingCount="1" stopTime="0.00" timeLoss="25.22" rerouteNo="0" devices="tripinfo_f_E.2" vType="car" speedFactor="0.94" vaporized=""/>
    <tripinfo id="f_W.2" depart="36.00" departLane="W_in_0" departPos="5.10" departSpeed="0.00" departDelay="0.00" arrival="141.00" arrivalLane="E_out_0" arrivalPos="489.60" arrivalSpeed="11.67" duration="105.00" routeLength="994.90" waitingTime="11.00" waitingCount="1" stopTime="0.00" timeLoss="23.46" rerouteNo="0" devices="tripinfo_f_W.2" vType="car" speedFactor="0.88" vaporized=""/>
    <tripinfo id="f_E.4" depart="72.00" departLane="E_in_0" departPos="5.10" departSpeed="0.00" departDelay="0.00" arrival="154.00" arrivalLane="W_out_0" arrivalPos="489.60" arrivalSpeed="12.99" duration="82.00" routeLength="994.90" waitingTime="0.00" waitingCount="0" stopTime="0.00" timeLoss="6.30" rerouteNo="0" devices="tripinfo_f_E.4" vType="car" speedFactor="0.95" vaporized=""/>
    <tripinfo id="f_E_L.1" depart="75.00" departLane="E_in_0" departPos="5.10" departSpeed="0.00" departDelay="3.00" arrival="155.00" arrivalLane="S_out_0" arrivalPos="489.60" arrivalSpeed="13.48" duration="80.00" routeLength="993.45" waitingTime="0.00" waitingCount="0" stopTime="0.00" timeLoss="7.20" rerouteNo="0" devices="tripinfo_f_E_L.1" vType="car" speedFactor="1.13" vaporized=""/>
    <tripinfo id="f_S.4" depart="72.00" departLane="S_in_0" departPos="5.10" departSpeed="0.00" departDelay="0.00" arrival="163.00" arrivalLane="N_out_1" arrivalPos="489.60" arrivalSpeed="13.70" duration="91.00" routeLength="994.90" waitingTime="7.00" waitingCount="1" stopTime="0.00" timeLoss="19.01" rerouteNo="0" devices="tripinfo_f_S.4" vType="car" speedFactor="1.18" vaporized=""/>
    <tripinfo id="f_S.3" depart="54.00" departLane="S_in_0" departPos="5.10" departSpeed="0.00" departDelay="0.00" arrival="164.00" arrivalLane="N_out_0" arrivalPos="489.60" arrivalSpeed="12.77" duration="110.00" routeLength="994.90" waitingTime="25.00" waitingCount="1" stopTime="0.00" timeLoss="35.99" rerouteNo="0" devices="tripinfo_f_S.3" vType="car" speedFactor="0.97" vaporized=""/>
    <tripinfo id="f_S_L.1" depart="75.00" departLane="S_in_0" departPos="5.10" departSpeed="0.00" departDelay="3.00" arrival="164.00" arrivalLane="E_out_0" arrivalPos="489.60" arrivalSpeed="13.63" duration="89.00" routeLength="983.13" waitingTime="5.00" waitingCount="1" stopTime="0.00" timeLoss="17.37" rerouteNo="0" devices="tripinfo_f_S_L.1" vType="car" speedFactor="1.15" vaporized=""/>
    <tripinfo id="f_N.4" depart="72.00" departLane="N_in_0" departPos="5.10" departSpeed="0.00" departDelay="0.00" arrival="164.00" arrivalLane="S_out_0" arrivalPos="489.60" arrivalSpeed="13.72" duration="92.00" routeLength="994.90" waitingTime="5.00" waitingCount="1" stopTime="0.00" timeLoss="19.45" rerouteNo="0" devices="tripinfo_f_N.4" vType="car" speedFactor="1.17" vaporized=""/>
    <tripinfo id="f_N_L.1" depart="75.00" departLane="N_in_0" departPos="5.10" departSpeed="0.00" departDelay="3.00" arrival="165.00" arrivalLane="W_out_0" arrivalPos="489.60" arrivalSpeed="13.63" duration="90.00" routeLength="983.13" waitingTime="6.00" waitingCount="1" stopTime="0.00" timeLoss="18.02" rerouteNo="0" devices="tripinfo_f_N_L.1" vType="car" speedFactor="0.99" vaporized=""/>
    <tripinfo id="f_S_R.1" depart="78.00" departLane="S_in_0" departPos="5.10" departSpeed="0.00" departDelay="6.00" arrival="166.00" arrivalLane="W_out_1" arrivalPos="489.60" arrivalSpeed="13.47" duration="88.00" routeLength="993.45" waitingTime="2.00" waitingCount="1" stopTime="0.00" timeLoss="15.64" rerouteNo="0" devices="tripinfo_f_S_R.1" vType="car" speedFactor="1.01" vaporized=""/>
    <tripinfo id="f_N.3" depart="54.00" departLane="N_in_0" departPos="5.10" departSpeed="0.00" departDelay="0.00" arrival="168.00" arrivalLane="S_out_0" arrivalPos="489.60" arrivalSpeed="11.33" duration="114.00" routeLength="994.90" waitingTime="21.00" waitingCount="1" stopTime="0.00" timeLoss="33.16" rerouteNo="0" devices="tripinfo_f_N.3" vType="car" speedFactor="0.89" vaporized=""/>
    <tripinfo id="f_S.5" depart="90.00" departLane="S_in_0" departPos="5.10" departSpeed="0.00" departDelay="0.00" arrival="169.00" arrivalLane="N_out_0" arrivalPos="489.60" arrivalSpeed="13.61" duration="79.00" routeLength="994.90" waitingTime="0.00" waitingCount="0" stopTime="0.00" timeLoss="6.57" rerouteNo="0" devices="tripinfo_f_S.5" vType="car" speedFactor="1.10" vaporized=""/>
    <tripinfo id="f_N_R.1" depart="78.00" departLane="N_in_0" departPos="5.10" departSpeed="0.00" departDelay="6.00" arrival="172.00" arrivalLane="E_out_0" arrivalPos="489.60" arrivalSpeed="13.32" duration="94.00" routeLength="993.45" waitingTime="6.00" waitingCount="2" stopTime="0.00" timeLoss="21.59" rerouteNo="0" devices="tripinfo_f_N_R.1" vType="car" speedFactor="1.02" vaporized=""/>
    <tripinfo id="f_N.5" depart="90.00" departLane="N_in_0" departPos="5.10" departSpeed="0.00" departDelay="0.00" arrival="176.00" arrivalLane="S_out_0" arrivalPos="489.60" arrivalSpeed="11.41" duration="86.00" routeLength="994.90" waitingTime="0.00" waitingCount="0" stopTime="0.00" timeLoss="6.17" rerouteNo="0" devices="tripinfo_f_N.5" vType="car" speedFactor="0.90" vaporized=""/>
    <tripinfo id="f_E.5" depart="90.00" departLane="E_in_0" departPos="5.10" departSpeed="0.00" departDelay="0.00" arrival="191.00" arrivalLane="W_out_0" arrivalPos="489.60" arrivalSpeed="13.61" duration="101.00" routeLength="994.90" waitingTime="16.00" waitingCount="1" stopTime="0.00" timeLoss="29.14" rerouteNo="0" devices="tripinfo_f_E.5" vType="car" speedFactor="1.18" vaporized=""/>
    <tripinfo id="f_E_R.1" depart="78.00" departLane="E_in_0" departPos="5.10" departSpeed="0.00" departDelay="6.00" arrival="193.00" arrivalLane="N_out_0" arrivalPos="489.60" arrivalSpeed="11.76" duration="115.00" routeLength="983.13" waitingTime="28.00" waitingCount="1" stopTime="0.00" timeLoss="38.10" rerouteNo="0" devices="tripinfo_f_E_R.1" vType="car" speedFactor="0.93" vaporized=""/>
    <tripinfo id="f_W.6" depart="108.00" departLane="W_in_0" departPos="5.10" departSpeed="0.00" departDelay="0.00" arrival="195.00" arrivalLane="E_out_0" arrivalPos="489.60" arrivalSpeed="13.24" duration="87.00" routeLength="994.90" waitingTime="2.00" waitingCount="1" stopTime="0.00" timeLoss="14.84" rerouteNo="0" devices="tripinfo_f_W.6" vType="car" speedFactor="1.03" vaporized=""/>
    <tripinfo id="f_E.6" depart="108.00" departLane="E_in_0" departPos="5.10" departSpeed="0.00" departDelay="0.00" arrival="195.00" arrivalLane="W_out_0" arrivalPos="489.60" arrivalSpeed="12.79" duration="87.00" routeLength="994.90" waitingTime="0.00" waitingCount="0" stopTime="0.00" timeLoss="11.38" rerouteNo="0" devices="tripinfo_f_E.6" vType="car" speedFactor="0.96" vaporized=""/>
    <tripinfo id="f_W_R.1" depart="78.00" departLane="W_in_0" departPos="5.10" departSpeed="0.00" departDelay="6.00" arrival="197.00" arrivalLane="S_out_0" arrivalPos="489.60" arrivalSpeed="12.05" duration="119.00" routeLength="983.13" waitingTime="26.00" waitingCount="1" stopTime="0.00" timeLoss="40.00" rerouteNo="0" devices="tripinfo_f_W_R.1" vType="car" speedFactor="0.92" vaporized=""/>
    <tripinfo id="f_W.4" depart="72.00" departLane="W_in_0" departPos="5.10" departSpeed="0.00" departDelay="0.00" arrival="199.00" arrivalLane="E_out_0" arrivalPos="489.60" arrivalSpeed="10.58" duration="127.00" routeLength="994.90" waitingTime="27.00" waitingCount="1" stopTime="0.00" timeLoss="39.46" rerouteNo="0" devices="tripinfo_f_W.4" vType="car" speedFactor="0.83" vaporized=""/>
    <tripinfo id="f_W.5" depart="90.00" departLane="W_in_0" departPos="5.10" departSpeed="0.00" departDelay="0.00" arrival="200.00" arrivalLane="E_out_1" arrivalPos="489.60" arrivalSpeed="12.63" duration="110.00" routeLength="994.90" waitingTime="19.00" waitingCount="2" stopTime="0.00" timeLoss="36.22" rerouteNo="0" devices="tripinfo_f_W.5" vType="car" speedFactor="0.97" vaporized=""/>
    <tripinfo id="f_W_L.1" depart="75.00" departLane="W_in_0" departPos="5.10" departSpeed="0.00" departDelay="3.00" arrival="202.00" arrivalLane="N_out_0" arrivalPos="489.60" arrivalSpeed="10.99" duration="127.00" routeLength="993.45" waitingTime="31.00" waitingCount="2" stopTime="0.00" timeLoss="44.34" rerouteNo="0" devices="tripinfo_f_W_L.1" vType="car" speedFactor="0.87" vaporized=""/>
    <tripinfo id="f_E.7" depart="126.00" departLane="E_in_0" departPos="5.10" departSpeed="0.00" departDelay="0.00" arrival="204.00" arrivalLane="W_out_0" arrivalPos="489.60" arrivalSpeed="12.66" duration="78.00" routeLength="994.90" waitingTime="0.00" waitingCount="0" stopTime="0.00" timeLoss="6.32" rerouteNo="0" devices="tripinfo_f_E.7" vType="car" speedFactor="1.09" vaporized=""/>
    <tripinfo id="f_W.7" depart="126.00" departLane="W_in_0" departPos="5.10" departSpeed="0.00" departDelay="0.00" arrival="205.00" arrivalLane="E_out_0" arrivalPos="489.60" arrivalSpeed="13.59" duration="79.00" routeLength="994.90" waitingTime="0.00" waitingCount="0" stopTime="0.00" timeLoss="6.77" rerouteNo="0" devices="tripinfo_f_W.7" vType="car" speedFactor="1.04" vaporized=""/>
    <tripinfo id="f_S.6" depart="108.00" departLane="S_in_0" departPos="5.10" departSpeed="0.00" departDelay="0.00" arrival="218.00" arrivalLane="N_out_0" arrivalPos="489.60" arrivalSpeed="13.17" duration="110.00" routeLength="994.90" waitingTime="28.00" waitingCount="1" stopTime="0.00" timeLoss="37.82" rerouteNo="0" devices="tripinfo_f_S.6" vType="car" speedFactor="1.09" vaporized=""/>
    <tripinfo id="f_N.6" depart="108.00" departLane="N_in_0" departPos="5.10" departSpeed="0.00" departDelay="0.00" arrival="218.00" arrivalLane="S_out_0" arrivalPos="489.60" arrivalSpeed="13.76" duration="110.00" routeLength="994.90" waitingTime="26.00" waitingCount="1" stopTime="0.00" timeLoss="38.43" rerouteNo="0" devices="tripinfo_f_N.6" vType="car" speedFactor="1.04" vaporized=""/>
    <tripinfo id="f_S.7" depart="126.00" departLane="S_in_0" departPos="5.10" departSpeed="0.00" departDelay="0.00" arrival="218.00" arrivalLane="N_out_1" arrivalPos="489.60" arrivalSpeed="13.85" duration="92.00" routeLength="994.90" waitingTime="10.00" waitingCount="1" stopTime="0.00" timeLoss="19.96" rerouteNo="0" devices="tripinfo_f_S.7" vType="car" speedFactor="1.00" vaporized=""/>
    <tripinfo id="f_N.7" depart="126.00" departLane="N_in_0" departPos="5.10" departSpeed="0.00" departDelay="0.00" arrival="222.00" arrivalLane="S_out_0" arrivalPos="489.60" arrivalSpeed="11.32" duration="96.00" routeLength="994.90" waitingTime="4.00" waitingCount="1" stopTime="0.00" timeLoss="16.05" rerouteNo="0" devices="tripinfo_f_N.7" vType="car" speedFactor="0.90" vaporized=""/>
    <tripinfo id="f_S.8" depart="144.00" departLane="S_in_0" departPos="5.10" departSpeed="0.00" departDelay="0.00" arrival="223.00" arrivalLane="N_out_0" arrivalPos="489.60" arrivalSpeed="12.74" duration="79.00" routeLength="994.90" waitingTime="0.00" waitingCount="0" stopTime="0.00" timeLoss="7.11" rerouteNo="0" devices="tripinfo_f_S.8" vType="car" speedFactor="1.00" vaporized=""/>
    <tripinfo id="f_N.8" depart="144.00" departLane="N_in_0" departPos="5.10" departSpeed="0.00" departDelay="0.00" arrival="223.00" arrivalLane="S_out_1" arrivalPos="489.60" arrivalSpeed="12.75" duration="79.00" routeLength="994.90" waitingTime="0.00" waitingCount="0" stopTime="0.00" timeLoss="6.87" rerouteNo="0" devices="tripinfo_f_N.8" vType="car" speedFactor="1.14" vaporized=""/>
    <tripinfo id="f_N_L.2" depart="147.00" departLane="N_in_0" departPos="5.10" departSpeed="0.00" departDelay="3.00" arrival="226.00" arrivalLane="W_out_0" arrivalPos="489.60" arrivalSpeed="12.87" duration="79.00" routeLength="983.13" waitingTime="0.00" waitingCount="0" stopTime="0.00" timeLoss="7.03" rerouteNo="0" devices="tripinfo_f_N_L.2" vType="car" speedFactor="1.02" vaporized=""/>
    <tripinfo id="f_S_L.2" depart="147.00" departLane="S_in_0" departPos="5.10" departSpeed="0.00" departDelay="3.00" arrival="227.00" arrivalLane="E_out_0" arrivalPos="489.60" arrivalSpeed="13.24" duration="80.00" routeLength="983.13" waitingTime="0.00" waitingCount="0" stopTime="0.00" timeLoss="8.22" rerouteNo="0" devices="tripinfo_f_S_L.2" vType="car" speedFactor="1.00" vaporized=""/>
    <tripinfo id="f_N_R.2" depart="150.00" departLane="N_in_0" departPos="5.10" departSpeed="0.00" departDelay="6.00" arrival="234.00" arrivalLane="E_out_0" arrivalPos="489.60" arrivalSpeed="12.20" duration="84.00" routeLength="993.45" waitingTime="0.00" waitingCount="0" stopTime="0.00" timeLoss="8.45" rerouteNo="0" devices="tripinfo_f_N_R.2" vType="car" speedFactor="0.97" vaporized=""/>
    <tripinfo id="f_S_R.2" depart="150.00" departLane="S_in_0" departPos="5.10" departSpeed="0.00" departDelay="6.00" arrival="239.00" arrivalLane="W_out_0" arrivalPos="489.60" arrivalSpeed="12.43" duration="89.00" routeLength="993.45" waitingTime="0.00" waitingCount="0" stopTime="0.00" timeLoss="8.45" rerouteNo="0" devices="tripinfo_f_S_R.2" vType="car" speedFactor="0.90" vaporized=""/>
    <tripinfo id="f_E.8" depart="144.00" departLane="E_in_0" departPos="5.10" departSpeed="0.00" departDelay="0.00" arrival="245.00" arrivalLane="W_out_0" arrivalPos="489.60" arrivalSpeed="13.70" duration="101.00" routeLength="994.90" waitingTime="17.00" waitingCount="1" stopTime="0.00" timeLoss="29.14" rerouteNo="0" devices="tripinfo_f_E.8" vType="car" speedFactor="1.17" vaporized=""/>
    <tripinfo id="f_E_R.2" depart="150.00" departLane="E_in_0" departPos="5.10" departSpeed="0.00" departDelay="6.00" arrival="246.00" arrivalLane="N_out_0" arrivalPos="489.60" arrivalSpeed="13.89" duration="96.00" routeLength="983.13" waitingTime="11.00" waitingCount="1" stopTime="0.00" timeLoss="24.35" rerouteNo="0" devices="tripinfo_f_E_R.2" vType="car" speedFactor="1.10" vaporized=""/>
    <tripinfo id="f_E_L.2" depart="147.00" departLane="E_in_0" departPos="5.10" departSpeed="0.00" departDelay="3.00" arrival="249.00" arrivalLane="S_out_0" arrivalPos="489.60" arrivalSpeed="12.82" duration="102.00" routeLength="993.45" waitingTime="15.00" waitingCount="2" stopTime="0.00" timeLoss="29.27" rerouteNo="0" devices="tripinfo_f_E_L.2" vType="car" speedFactor="1.02" vaporized=""/>
    <tripinfo id="f_W.8" depart="144.00" departLane="W_in_0" departPos="5.10" departSpeed="0.00" departDelay="0.00" arrival="251.00" arrivalLane="E_out_0" arrivalPos="489.60" arrivalSpeed="11.65" duration="107.00" routeLength="994.90" waitingTime="11.00" waitingCount="1" stopTime="0.00" timeLoss="24.72" rerouteNo="0" devices="tripinfo_f_W.8" vType="car" speedFactor="0.88" vaporized=""/>
    <tripinfo id="f_W.9" depart="162.00" departLane="W_in_0" departPos="5.10" departSpeed="0.00" departDelay="0.00" arrival="251.00" arrivalLane="E_out_1" arrivalPos="489.60" arrivalSpeed="12.89" duration="89.00" routeLength="994.90" waitingTime="2.00" waitingCount="1" stopTime="0.00" timeLoss="17.30" rerouteNo="0" devices="tripinfo_f_W.9" vType="car" speedFactor="1.08" vaporized=""/>
    <tripinfo id="f_E.9" depart="162.00" departLane="E_in_0" departPos="5.10" departSpeed="0.00" departDelay="0.00" arrival="251.00" arrivalLane="W_out_0" arrivalPos="489.60" arrivalSpeed="12.99" duration="89.00" routeLength="994.90" waitingTime="1.00" waitingCount="1" stopTime="0.00" timeLoss="17.43" rerouteNo="0" devices="tripinfo_f_E.9" vType="car" speedFactor="1.12" vaporized=""/>
    <tripinfo id="f_W_R.2" depart="150.00" departLane="W_in_0" departPos="5.10" departSpeed="0.00" departDelay="6.00" arrival="254.00" arrivalLane="S_out_0" arrivalPos="489.60" arrivalSpeed="11.38" duration="104.00" routeLength="983.13" waitingTime="7.00" waitingCount="1" stopTime="0.00" timeLoss="20.27" rerouteNo="0" devices="tripinfo_f_W_R.2" vType="car" speedFactor="0.85" vaporized=""/>
    <tripinfo id="f_W_L.2" depart="147.00" departLane="W_in_0" departPos="5.10" departSpeed="0.00" departDelay="3.00" arrival="257.00" arrivalLane="N_out_0" arrivalPos="489.60" arrivalSpeed="10.56" duration="110.00" routeLength="993.45" waitingTime="8.00" waitingCount="2" stopTime="0.00" timeLoss="24.34" rerouteNo="0" devices="tripinfo_f_W_L.2" vType="car" speedFactor="0.85" vaporized=""/>
    <tripinfo id="f_W.10" depart="180.00" departLane="W_in_0" departPos="5.10" departSpeed="0.00" departDelay="0.00" arrival="263.00" arrivalLane="E_out_0" arrivalPos="489.60" arrivalSpeed="12.22" duration="83.00" routeLength="994.90" waitingTime="0.00" waitingCount="0" stopTime="0.00" timeLoss="6.51" rerouteNo="0" devices="tripinfo_f_W.10" vType="car" speedFactor="0.94" vaporized=""/>
    <tripinfo id="f_E.10" depart="180.00" departLane="E_in_0" departPos="5.10" departSpeed="0.00" departDelay="0.00" arrival="268.00" arrivalLane="W_out_0" arrivalPos="489.60" arrivalSpeed="11.64" duration="88.00" routeLength="994.90" waitingTime="0.00" waitingCount="0" stopTime="0.00" timeLoss="6.64" rerouteNo="0" devices="tripinfo_f_E.10" vType="car" speedFactor="0.88" vaporized=""/>
    <tripinfo id="f_S.9" depart="162.00" departLane="S_in_0" departPos="5.10" departSpeed="0.00" departDelay="0.00" arrival="273.00" arrivalLane="N_out_0" arrivalPos="489.60" arrivalSpeed="13.65" duration="111.00" routeLength="994.90" waitingTime="28.00" waitingCount="1" stopTime="0.00" timeLoss="38.94" rerouteNo="0" devices="tripinfo_f_S.9" vType="car" speedFactor="1.02" vaporized=""/>
    <tripinfo id="f_N.9" depart="162.00" departLane="N_in_0" departPos="5.10" departSpeed="0.00" departDelay="0.00" arrival="274.00" arrivalLane="S_out_0" arrivalPos="489.60" arrivalSpeed="13.61" duration="112.00" routeLength="994.90" waitingTime="26.00" waitingCount="1" stopTime="0.00" timeLoss="38.70" rerouteNo="0" devices="tripinfo_f_N.9" vType="car" speedFactor="0.99" vaporized=""/>
    <tripinfo id="f_S.10" depart="180.00" departLane="S_in_0" departPos="5.10" departSpeed="0.00" departDelay="0.00" arrival="277.00" arrivalLane="N_out_0" arrivalPos="489.60" arrivalSpeed="12.60" duration="97.00" routeLength="994.90" waitingTime="5.00" waitingCount="1" stopTime="0.00" timeLoss="18.05" rerouteNo="0" devices="tripinfo_f_S.10" vType="car" speedFactor="0.91" vaporized=""/>
    <tripinfo id="f_N.10" depart="180.00" departLane="N_in_0" departPos="5.10" departSpeed="0.00" departDelay="0.00" arrival="277.00" arrivalLane="S_out_0" arrivalPos="489.60" arrivalSpeed="11.45" duration="97.00" routeLength="994.90" waitingTime="5.00" waitingCount="1" stopTime="0.00" timeLoss="18.30" rerouteNo="0" devices="tripinfo_f_N.10" vType="car" speedFactor="0.91" vaporized=""/>
    <tripinfo id="f_S.11" depart="198.00" departLane="S_in_0" departPos="5.10" departSpeed="0.00" departDelay="0.00" arrival="277.00" arrivalLane="N_out_1" arrivalPos="489.60" arrivalSpeed="13.31" duration="79.00" routeLength="994.90" waitingTime="0.00" waitingCount="0" stopTime="0.00" timeLoss="6.94" rerouteNo="0" devices="tripinfo_f_S.11" vType="car" speedFactor="1.02" vaporized=""/>
    <tripinfo id="f_N.11" depart="198.00" departLane="N_in_0" departPos="5.10" departSpeed="0.00" departDelay="0.00" arrival="279.00" arrivalLane="S_out_0" arrivalPos="489.60" arrivalSpeed="13.36" duration="81.00" routeLength="994.90" waitingTime="0.00" waitingCount="0" stopTime="0.00" timeLoss="6.63" rerouteNo="0" devices="tripinfo_f_N.11" vType="car" speedFactor="0.97" vaporized=""/>
    <tripinfo id="f_S.12" depart="216.00" departLane="S_in_0" departPos="5.10" departSpeed="0.00" departDelay="0.00" arrival="294.00" arrivalLane="N_out_0" arrivalPos="489.60" arrivalSpeed="13.15" duration="78.00" routeLength="994.90" waitingTime="0.00" waitingCount="0" stopTime="0.00" timeLoss="6.40" rerouteNo="0" devices="tripinfo_f_S.12" vType="car" speedFactor="1.01" vaporized=""/>
    <tripinfo id="f_N.12" depart="216.00" departLane="N_in_0" departPos="5.10" departSpeed="0.00" departDelay="0.00" arrival="295.00" arrivalLane="S_out_0" arrivalPos="489.60" arrivalSpeed="13.63" duration="79.00" routeLength="994.90" waitingTime="0.00" waitingCount="0" stopTime="0.00" timeLoss="6.56" rerouteNo="0" devices="tripinfo_f_N.12" vType="car" speedFactor="1.00" vaporized=""/>
    <tripinfo id="f_W.11" depart="198.00" departLane="W_in_0" departPos="5.10" departSpeed="0.00" departDelay="0.00" arrival="300.00" arrivalLane="E_out_0" arrivalPos="489.60" arrivalSpeed="13.52" duration="102.00" routeLength="994.90" waitingTime="18.00" waitingCount="1" stopTime="0.00" timeLoss="30.00" rerouteNo="0" devices="tripinfo_f_W.11" vType="car" speedFactor="1.04" vaporized=""/>
    <tripinfo id="f_E.11" depart="198.00" departLane="E_in_0" departPos="5.10" departSpeed="0.00" departDelay="0.00" arrival="300.00" arrivalLane="W_out_0" arrivalPos="489.60" arrivalSpeed="13.86" duration="102.00" routeLength="994.90" waitingTime="18.00" waitingCount="1" stopTime="0.00" timeLoss="30.07" rerouteNo="0" devices="tripinfo_f_E.11" vType="car" speedFactor="1.02" vaporized=""/>