<?xml version="1.0" encoding="UTF-8"?>

<!-- generated on 2025-12-31T11:09:50.904350+05:30 by Eclipse SUMO GUI 1.25.0
<sumoConfiguration xmlns:xsi="http://www.w3.org/2001/XMLSchema-instance" xsi:noNamespaceSchemaLocation="http://sumo.dlr.de/xsd/sumoConfiguration.xsd">

    <input>
        <net-file value="cross.net.xml"/>
        <route-files value="cross.rou.xml"/>
        <additional-files value="cross.add.xml"/>
    </input>

    <output>
        <tripinfo-output value="tripinfo.xml"/>
    </output>

    <time>
        <begin value="0"/>
        <end value="3600"/>
    </time>

    <traci_server>
        <remote-port value="62827"/>
    </traci_server>

    <gui_only>
        <start value="true"/>
    </gui_only>

</sumoConfiguration>
-->

<tripinfos xmlns:xsi="http://www.w3.org/2001/XMLSchema-instance" xsi:noNamespaceSchemaLocation="http://sumo.dlr.de/xsd/tripinfo_file.xsd">
    <tripinfo id="f_W.0" depart="0.00" departLane="W_in_0" departPos="5.10" departSpeed="0.00" departDelay="0.00" arrival="80.00" arrivalLane="E_out_0" arrivalPos="489.60" arrivalSpeed="13.35" duration="80.00" routeLength="994.90" waitingTime="0.00" waitingCount="0" stopTime="0.00" timeLoss="8.07" rerouteNo="0" devices="tripinfo_f_W.0" vType="car" speedFactor="1.06" vaporized=""/>
    <tripinfo id="f_E.0" depart="0.00" departLane="E_in_0" departPos="5.10" departSpeed="0.00" departDelay="0.00" arrival="80.00" arrivalLane="W_out_0" arrivalPos="489.60" arrivalSpeed="12.72" duration="80.00" routeLength="994.90" waitingTime="0.00" waitingCount="0" stopTime="0.00" timeLoss="7.96" rerouteNo="0" devices="tripinfo_f_E.0" vType="car" speedFactor="1.08" vaporized=""/>
    <tripinfo id="f_E_L.0" depart="3.00" departLane="E_in_0" departPos="5.10" departSpeed="0.00" departDelay="3.00" arrival="83.00" arrivalLane="S_out_0" arrivalPos="489.60" arrivalSpeed="13.71" duration="80.00" routeLength="993.45" waitingTime="0.00" waitingCount="0" stopTime="0.00" timeLoss="7.87" rerouteNo="0" devices="tripinfo_f_E_L.0" vType="car" speedFactor="1.03" vaporized=""/>
    <tripinfo id="f_W_R.0" depart="6.00" departLane="W_in_0" departPos="5.10" departSpeed="0.00" departDelay="6.00" arrival="86.00" arrivalLane="S_out_0" arrivalPos="489.60" arrivalSpeed="13.86" duration="80.00" routeLength="983.13" waitingTime="0.00" waitingCount="0" stopTime="0.00" timeLoss="8.53" rerouteNo="0" devices="tripinfo_f_W_R.0" vType="car" speedFactor="1.01" vaporized=""/>
    <tripinfo id="f_W_L.0" depart="3.00" departLane="W_in_0" departPos="5.10" departSpeed="0.00" departDelay="3.00" arrival="88.00" arrivalLane="N_out_0" arrivalPos="489.60" arrivalSpeed="12.77" duration="85.00" routeLength="993.45" waitingTime="0.00" waitingCount="0" stopTime="0.00" timeLoss="7.77" rerouteNo="0" devices="tripinfo_f_W_L.0" vType="car" speedFactor="0.94" vaporized=""/>
    <tripinfo id="f_S.0" depart="0.00" departLane="S_in_0" departPos="5.10" departSpeed="0.00" departDelay="0.00" arrival="97.00" arrivalLane="N_out_0" arrivalPos="489.60" arrivalSpeed="12.71" duration="97.00" routeLength="994.90" waitingTime="12.00" waitingCount="1" stopTime="0.00" timeLoss="24.81" rerouteNo="0" devices="tripinfo_f_S.0" vType="car" speedFactor="1.05" vaporized=""/>
    <tripinfo id="f_N_L.0" depart="3.00" departLane="N_in_0" departPos="5.10" departSpeed="0.00" departDelay="3.00" arrival="98.00" arrivalLane="W_out_0" arrivalPos="489.60" arrivalSpeed="12.99" duration="95.00" routeLength="983.13" waitingTime="6.00" waitingCount="1" stopTime="0.00" timeLoss="23.76" rerouteNo="0" devices="tripinfo_f_N_L.0" vType="car" speedFactor="1.09" vaporized=""/>
    <tripinfo id="f_E_R.0" depart="6.00" departLane="E_in_0" departPos="5.10" departSpeed="0.00" departDelay="6.00" arrival="101.00" arrivalLane="N_out_0" arrivalPos="489.60" arrivalSpeed="10.53" duration="95.00" routeLength="983.13" waitingTime="0.00" waitingCount="0" stopTime="0.00" timeLoss="8.00" rerouteNo="0" devices="tripinfo_f_E_R.0" vType="car" speedFactor="0.83" vaporized=""/>
    <tripinfo id="f_N_R.0" depart="6.00" departLane="N_in_0" departPos="5.10" departSpeed="0.00" departDelay="6.00" arrival="101.00" arrivalLane="E_out_0" arrivalPos="489.60" arrivalSpeed="13.25" duration="95.00" routeLength="993.45" waitingTime="9.00" waitingCount="2" stopTime="0.00" timeLoss="22.58" rerouteNo="0" devices="tripinfo_f_N_R.0" vType="car" speedFactor="1.03" vaporized=""/>
    <tripinfo id="f_N.0" depart="0.00" departLane="N_in_0" departPos="5.10" departSpeed="0.00" departDelay="0.00" arrival="103.00" arrivalLane="S_out_0" arrivalPos="489.60" arrivalSpeed="11.43" duration="103.00" routeLength="994.90" waitingTime="7.00" waitingCount="1" stopTime="0.00" timeLoss="18.73" rerouteNo="0" devices="tripinfo_f_N.0" vType="car" speedFactor="0.86" vaporized=""/>
    <tripinfo id="f_S_L.0" depart="3.00" departLane="S_in_0" departPos="5.10" departSpeed="0.00" departDelay="3.00" arrival="104.00" arrivalLane="E_out_0" arrivalPos="489.60" arrivalSpeed="11.31" duration="101.00" routeLength="983.13" waitingTime="7.00" waitingCount="1" stopTime="0.00" timeLoss="19.93" rerouteNo="0" devices="tripinfo_f_S_L.0" vType="car" speedFactor="0.89" vaporized=""/>
    <tripinfo id="f_S.1" depart="18.00" departLane="S_in_0" departPos="5.10" departSpeed="0.00" departDelay="0.00" arrival="105.00" arrivalLane="N_out_0" arrivalPos="489.60" arrivalSpeed="12.63" duration="87.00" routeLength="994.90" waitingTime="2.00" waitingCount="1" stopTime="0.00" timeLoss="14.77" rerouteNo="0" devices="tripinfo_f_S.1" vType="car" speedFactor="0.99" vaporized=""/>
    <tripinfo id="f_N.1" depart="18.00" departLane="N_in_0" departPos="5.10" departSpeed="0.00" departDelay="0.00" arrival="106.00" arrivalLane="S_out_0" arrivalPos="489.60" arrivalSpeed="12.08" duration="88.00" routeLength="994.90" waitingTime="0.00" waitingCount="0" stopTime="0.00" timeLoss="10.67" rerouteNo="0" devices="tripinfo_f_N.1" vType="car" speedFactor="0.93" vaporized=""/>
    <tripinfo id="f_S_R.0" depart="6.00" departLane="S_in_0" departPos="5.10" departSpeed="0.00" departDelay="6.00" arrival="110.00" arrivalLane="W_out_1" arrivalPos="489.60" arrivalSpeed="12.82" duration="104.00" routeLength="993.45" waitingTime="12.00" waitingCount="2" stopTime="0.00" timeLoss="26.99" rerouteNo="0" devices="tripinfo_f_S_R.0" vType="car" speedFactor="0.94" vaporized=""/>
    <tripinfo id="f_W.1" depart="18.00" departLane="W_in_0" departPos="5.10" departSpeed="0.00" departDelay="0.00" arrival="110.00" arrivalLane="E_out_0" arrivalPos="489.60" arrivalSpeed="12.81" duration="92.00" routeLength="994.90" waitingTime="8.00" waitingCount="1" stopTime="0.00" timeLoss="19.57" rerouteNo="0" devices="tripinfo_f_W.1" vType="car" speedFactor="1.05" vaporized=""/>
    <tripinfo id="f_E.1" depart="18.00" departLane="E_in_0" departPos="5.10" departSpeed="0.00" departDelay="0.00" arrival="110.00" arrivalLane="W_out_0" arrivalPos="489.60" arrivalSpeed="13.55" duration="92.00" routeLength="994.90" waitingTime="9.00" waitingCount="1" stopTime="0.00" timeLoss="19.77" rerouteNo="0" devices="tripinfo_f_E.1" vType="car" speedFactor="1.12" vaporized=""/>
    <tripinfo id="f_E.2" depart="36.00" departLane="E_in_0" departPos="5.10" departSpeed="0.00" departDelay="0.00" arrival="119.00" arrivalLane="W_out_0" arrivalPos="489.60" arrivalSpeed="12.59" duration="83.00" routeLength="994.90" waitingTime="0.00" waitingCount="0" stopTime="0.00" timeLoss="6.65" rerouteNo="0" devices="tripinfo_f_E.2" vType="car" speedFactor="0.94" vaporized=""/>
    <tripinfo id="f_N.2" depart="36.00" departLane="N_in_0" departPos="5.10" departSpeed="0.00" departDelay="0.00" arrival="123.00" arrivalLane="S_out_0" arrivalPos="489.60" arrivalSpeed="13.69" duration="87.00" routeLength="994.90" waitingTime="2.00" waitingCount="1" stopTime="0.00" timeLoss="14.94" rerouteNo="0" devices="tripinfo_f_N.2" vType="car" speedFactor="1.16" vaporized=""/>
    <tripinfo id="f_S.2" depart="36.00" departLane="S_in_0" departPos="5.10" departSpeed="0.00" departDelay="0.00" arrival="125.00" arrivalLane="N_out_0" arrivalPos="489.60" arrivalSpeed="11.79" duration="89.00" routeLength="994.90" waitingTime="0.00" waitingCount="0" stopTime="0.00" timeLoss="12.31" rerouteNo="0" devices="tripinfo_f_S.2" vType="car" speedFactor="0.94" vaporized=""/>
    <tripinfo id="f_W.3" depart="54.00" departLane="W_in_0" departPos="5.10" departSpeed="0.00" departDelay="0.00" arrival="134.00" arrivalLane="E_out_0" arrivalPos="489.60" arrivalSpeed="13.61" duration="80.00" routeLength="994.90" waitingTime="0.00" waitingCount="0" stopTime="0.00" timeLoss="8.25" rerouteNo="0" devices="tripinfo_f_W.3" vType="car" speedFactor="1.02" vaporized=""/>
    <tripinfo id="f_E.3" depart="54.00" departLane="E_in_0" departPos="5.10" departSpeed="0.00" departDelay="0.00" arrival="134.00" arrivalLane="W_out_0" arrivalPos="489.60" arrivalSpeed="13.44" duration="80.00" routeLength="994.90" waitingTime="0.00" waitingCount="0" stopTime="0.00" timeLoss="7.67" rerouteNo="0" devices="tripinfo_f_E.3" vType="car" speedFactor="1.01" vaporized=""/>
    <tripinfo id="f_W.2" depart="36.00" departLane="W_in_0" departPos="5.10" departSpeed="0.00" departDelay="0.00" arrival="141.00" arrivalLane="E_out_0" arrivalPos="489.60" arrivalSpeed="12.05" duration="105.00" routeLength="994.90" waitingTime="11.00" waitingCount="1" stopTime="0.00" timeLoss="22.93" rerouteNo="0" devices="tripinfo_f_W.2" vType="car" speedFactor="0.88" vaporized=""/>
    <tripinfo id="f_S.4" depart="72.00" departLane="S_in_0" departPos="5.10" departSpeed="0.00" departDelay="0.00" arrival="150.00" arrivalLane="N_out_0" arrivalPos="489.60" arrivalSpeed="12.86" duration="78.00" routeLength="994.90" waitingTime="0.00" waitingCount="0" stopTime="0.00" timeLoss="6.26" rerouteNo="0" devices="tripinfo_f_S.4" vType="car" speedFactor="1.18" vaporized=""/>
    <tripinfo id="f_N.4" depart="72.00" departLane="N_in_0" departPos="5.10" departSpeed="0.00" departDelay="0.00" arrival="150.00" arrivalLane="S_out_0" arrivalPos="489.60" arrivalSpeed="12.63" duration="78.00" routeLength="994.90" waitingTime="0.00" waitingCount="0" stopTime="0.00" timeLoss="5.82" rerouteNo="0" devices="tripinfo_f_N.4" vType="car" speedFactor="1.17" vaporized=""/>
    <tripinfo id="f_S.3" depart="54.00" departLane="S_in_0" departPos="5.10" departSpeed="0.00" departDelay="0.00" arrival="152.00" arrivalLane="N_out_1" arrivalPos="489.60" arrivalSpeed="13.28" duration="98.00" routeLength="994.90" waitingTime="12.00" waitingCount="1" stopTime="0.00" timeLoss="23.97" rerouteNo="0" devices="tripinfo_f_S.3" vType="car" speedFactor="0.97" vaporized=""/>
    <tripinfo id="f_N.3" depart="54.00" departLane="N_in_0" departPos="5.10" departSpeed="0.00" departDelay="0.00" arrival="155.00" arrivalLane="S_out_0" arrivalPos="489.60" arrivalSpeed="11.75" duration="101.00" routeLength="994.90" waitingTime="8.00" waitingCount="1" stopTime="0.00" timeLoss="20.38" rerouteNo="0" devices="tripinfo_f_N.3" vType="car" speedFactor="0.89" vaporized=""/>
    <tripinfo id="f_S_L.1" depart="75.00" departLane="S_in_0" departPos="5.10" departSpeed="0.00" departDelay="3.00" arrival="155.00" arrivalLane="E_out_0" arrivalPos="489.60" arrivalSpeed="13.89" duration="80.00" routeLength="983.13" waitingTime="0.00" waitingCount="0" stopTime="0.00" timeLoss="8.29" rerouteNo="0" devices="tripinfo_f_S_L.1" vType="car" speedFactor="1.15" vaporized=""/>
    <tripinfo id="f_N_L.1" depart="75.00" departLane="N_in_0" departPos="5.10" departSpeed="0.00" departDelay="3.00" arrival="156.00" arrivalLane="W_out_0" arrivalPos="489.60" arrivalSpeed="13.34" duration="81.00" routeLength="983.13" waitingTime="0.00" waitingCount="0" stopTime="0.00" timeLoss="8.12" rerouteNo="0" devices="tripinfo_f_N_L.1" vType="car" speedFactor="0.99" vaporized=""/>
    <tripinfo id="f_S_R.1" depart="78.00" departLane="S_in_0" departPos="5.10" departSpeed="0.00" departDelay="6.00" arrival="158.00" arrivalLane="W_out_0" arrivalPos="489.60" arrivalSpeed="13.39" duration="80.00" routeLength="993.45" waitingTime="0.00" waitingCount="0" stopTime="0.00" timeLoss="7.53" rerouteNo="0" devices="tripinfo_f_S_R.1" vType="car" speedFactor="1.01" vaporized=""/>
    <tripinfo id="f_N_R.1" depart="78.00" departLane="N_in_0" departPos="5.10" departSpeed="0.00" departDelay="6.00" arrival="159.00" arrivalLane="E_out_0" arrivalPos="489.60" arrivalSpeed="13.03" duration="81.00" routeLength="993.45" waitingTime="0.00" waitingCount="0" stopTime="0.00" timeLoss="8.42" rerouteNo="0" devices="tripinfo_f_N_R.1" vType="car" speedFactor="1.02" vaporized=""/>
    <tripinfo id="f_E.4" depart="72.00" departLane="E_in_0" departPos="5.10" departSpeed="0.00" departDelay="0.00" arrival="166.00" arrivalLane="W_out_0" arrivalPos="489.60" arrivalSpeed="12.87" duration="94.00" routeLength="994.90" waitingTime="7.00" waitingCount="1" stopTime="0.00" timeLoss="17.90" rerouteNo="0" devices="tripinfo_f_E.4" vType="car" speedFactor="0.95" vaporized=""/>
    <tripinfo id="f_E.5" depart="90.00" departLane="E_in_0" departPos="5.10" departSpeed="0.00" departDelay="0.00" arrival="168.00" arrivalLane="W_out_0" arrivalPos="489.60" arrivalSpeed="13.69" duration="78.00" routeLength="994.90" waitingTime="0.00" waitingCount="0" stopTime="0.00" timeLoss="6.06" rerouteNo="0" devices="tripinfo_f_E.5" vType="car" speedFactor="1.18" vaporized=""/>
    <tripinfo id="f_E_R.1" depart="78.00" departLane="E_in_0" departPos="5.10" departSpeed="0.00" departDelay="6.00" arrival="169.00" arrivalLane="N_out_0" arrivalPos="489.60" arrivalSpeed="11.67" duration="91.00" routeLength="983.13" waitingTime="2.00" waitingCount="1" stopTime="0.00" timeLoss="14.02" rerouteNo="0" devices="tripinfo_f_E_R.1" vType="car" speedFactor="0.93" vaporized=""/>
    <tripinfo id="f_W_R.1" depart="78.00" departLane="W_in_0" departPos="5.10" departSpeed="0.00" departDelay="6.00" arrival="170.00" arrivalLane="S_out_0" arrivalPos="489.60" arrivalSpeed="11.94" duration="92.00" routeLength="983.13" waitingTime="0.00" waitingCount="0" stopTime="0.00" timeLoss="13.23" rerouteNo="0" devices="tripinfo_f_W_R.1" vType="car" speedFactor="0.92" vaporized=""/>
    <tripinfo id="f_W.5" depart="90.00" departLane="W_in_0" departPos="5.10" departSpeed="0.00" departDelay="0.00" arrival="170.00" arrivalLane="E_out_1" arrivalPos="489.60" arrivalSpeed="13.44" duration="80.00" routeLength="994.90" waitingTime="0.00" waitingCount="0" stopTime="0.00" timeLoss="6.35" rerouteNo="0" devices="tripinfo_f_W.5" vType="car" speedFactor="0.97" vaporized=""/>
    <tripinfo id="f_W.4" depart="72.00" departLane="W_in_0" departPos="5.10" departSpeed="0.00" departDelay="0.00" arrival="171.00" arrivalLane="E_out_0" arrivalPos="489.60" arrivalSpeed="11.11" duration="99.00" routeLength="994.90" waitingTime="0.00" waitingCount="0" stopTime="0.00" timeLoss="12.28" rerouteNo="0" devices="tripinfo_f_W.4" vType="car" speedFactor="0.83" vaporized=""/>
    <tripinfo id="f_E_L.1" depart="75.00" departLane="E_in_0" departPos="5.10" departSpeed="0.00" departDelay="3.00" arrival="174.00" arrivalLane="S_out_0" arrivalPos="489.60" arrivalSpeed="12.83" duration="99.00" routeLength="993.45" waitingTime="12.00" waitingCount="2" stopTime="0.00" timeLoss="26.27" rerouteNo="0" devices="tripinfo_f_E_L.1" vType="car" speedFactor="1.13" vaporized=""/>
    <tripinfo id="f_W_L.1" depart="75.00" departLane="W_in_0" departPos="5.10" departSpeed="0.00" departDelay="3.00" arrival="178.00" arrivalLane="N_out_0" arrivalPos="489.60" arrivalSpeed="10.94" duration="103.00" routeLength="993.45" waitingTime="7.00" waitingCount="1" stopTime="0.00" timeLoss="20.03" rerouteNo="0" devices="tripinfo_f_W_L.1" vType="car" speedFactor="0.87" vaporized=""/>
    <tripinfo id="f_S.5" depart="90.00" departLane="S_in_0" departPos="5.10" departSpeed="0.00" departDelay="0.00" arrival="180.00" arrivalLane="N_out_1" arrivalPos="489.60" arrivalSpeed="13.79" duration="90.00" routeLength="994.90" waitingTime="7.00" waitingCount="1" stopTime="0.00" timeLoss="17.57" rerouteNo="0" devices="tripinfo_f_S.5" vType="car" speedFactor="1.10" vaporized=""/>
    <tripinfo id="f_N.5" depart="90.00" departLane="N_in_0" departPos="5.10" departSpeed="0.00" departDelay="0.00" arrival="185.00" arrivalLane="S_out_0" arrivalPos="489.60" arrivalSpeed="11.51" duration="95.00" routeLength="994.90" waitingTime="2.00" waitingCount="1" stopTime="0.00" timeLoss="14.62" rerouteNo="0" devices="tripinfo_f_N.5" vType="car" speedFactor="0.90" vaporized=""/>
    <tripinfo id="f_S.6" depart="108.00" departLane="S_in_0" departPos="5.10" departSpeed="0.00" departDelay="0.00" arrival="187.00" arrivalLane="N_out_0" arrivalPos="489.60" arrivalSpeed="12.69" duration="79.00" routeLength="994.90" waitingTime="0.00" waitingCount="0" stopTime="0.00" timeLoss="6.85" rerouteNo="0" devices="tripinfo_f_S.6" vType="car" speedFactor="1.09" vaporized=""/>
    <tripinfo id="f_N.6" depart="108.00" departLane="N_in_0" departPos="5.10" departSpeed="0.00" departDelay="0.00" arrival="187.00" arrivalLane="S_out_0" arrivalPos="489.60" arrivalSpeed="13.32" duration="79.00" routeLength="994.90" waitingTime="0.00" waitingCount="0" stopTime="0.00" timeLoss="6.49" rerouteNo="0" devices="tripinfo_f_N.6" vType="car" speedFactor="1.04" vaporized=""/>
    <tripinfo id="f_W.6" depart="108.00" departLane="W_in_0" departPos="5.10" departSpeed="0.00" departDelay="0.00" arrival="195.00" arrivalLane="E_out_0" arrivalPos="489.60" arrivalSpeed="13.40" duration="87.00" routeLength="994.90" waitingTime="4.00" waitingCount="1" stopTime="0.00" timeLoss="14.63" rerouteNo="0" devices="tripinfo_f_W.6" vType="car" speedFactor="1.03" vaporized=""/>
    <tripinfo id="f_E.6" depart="108.00" departLane="E_in_0" departPos="5.10" departSpeed="0.00" departDelay="0.00" arrival="197.00" arrivalLane="W_out_0" arrivalPos="489.60" arrivalSpeed="13.19" duration="89.00" routeLength="994.90" waitingTime="0.00" waitingCount="0" stopTime="0.00" timeLoss="13.23" rerouteNo="0" devices="tripinfo_f_E.6" vType="car" speedFactor="0.96" vaporized=""/>
    <tripinfo id="f_E.7" depart="126.00" departLane="E_in_0" departPos="5.10" departSpeed="0.00" departDelay="0.00" arrival="204.00" arrivalLane="W_out_0" arrivalPos="489.60" arrivalSpeed="13.83" duration="78.00" routeLength="994.90" waitingTime="0.00" waitingCount="0" stopTime="0.00" timeLoss="6.39" rerouteNo="0" devices="tripinfo_f_E.7" vType="car" speedFactor="1.09" vaporized=""/>
    <tripinfo id="f_W.7" depart="126.00" departLane="W_in_0" departPos="5.10" departSpeed="0.00" departDelay="0.00" arrival="205.00" arrivalLane="E_out_0" arrivalPos="489.60" arrivalSpeed="13.72" duration="79.00" routeLength="994.90" waitingTime="0.00" waitingCount="0" stopTime="0.00" timeLoss="6.46" rerouteNo="0" devices="tripinfo_f_W.7" vType="car" speedFactor="1.04" vaporized=""/>
    <tripinfo id="f_S.7" depart="126.00" departLane="S_in_0" departPos="5.10" departSpeed="0.00" departDelay="0.00" arrival="213.00" arrivalLane="N_out_0" arrivalPos="489.60" arrivalSpeed="13.69" duration="87.00" routeLength="994.90" waitingTime="3.00" waitingCount="1" stopTime="0.00" timeLoss="14.79" rerouteNo="0" devices="tripinfo_f_S.7" vType="car" speedFactor="1.00" vaporized=""/>
    <tripinfo id="f_N.7" depart="126.00" departLane="N_in_0" departPos="5.10" departSpeed="0.00" departDelay="0.00" arrival="217.00" arrivalLane="S_out_0" arrivalPos="489.60" arrivalSpeed="12.39" duration="91.00" routeLength="994.90" waitingTime="0.00" waitingCount="0" stopTime="0.00" timeLoss="10.56" rerouteNo="0" devices="tripinfo_f_N.7" vType="car" speedFactor="0.90" vaporized=""/>
    <tripinfo id="f_E.8" depart="144.00" departLane="E_in_0" departPos="5.10" departSpeed="0.00" departDelay="0.00" arrival="224.00" arrivalLane="W_out_0" arrivalPos="489.60" arrivalSpeed="13.35" duration="80.00" routeLength="994.90" waitingTime="0.00" waitingCount="0" stopTime="0.00" timeLoss="7.77" rerouteNo="0" devices="tripinfo_f_E.8" vType="car" speedFactor="1.17" vaporized=""/>
    <tripinfo id="f_E_L.2" depart="147.00" departLane="E_in_0" departPos="5.10" departSpeed="0.00" departDelay="3.00" arrival="231.00" arrivalLane="S_out_0" arrivalPos="489.60" arrivalSpeed="13.28" duration="84.00" routeLength="993.45" waitingTime="1.00" waitingCount="1" stopTime="0.00" timeLoss="11.77" rerouteNo="0" devices="tripinfo_f_E_L.2" vType="car" speedFactor="1.02" vaporized=""/>
    <tripinfo id="f_E_R.2" depart="150.00" departLane="E_in_0" departPos="5.10" departSpeed="0.00" departDelay="6.00" arrival="231.00" arrivalLane="N_out_0" arrivalPos="489.60" arrivalSpeed="12.88" duration="81.00" routeLength="983.13" waitingTime="0.00" waitingCount="0" stopTime="0.00" timeLoss="9.55" rerouteNo="0" devices="tripinfo_f_E_R.2" vType="car" speedFactor="1.10" vaporized=""/>
    <tripinfo id="f_W.8" depart="144.00" departLane="W_in_0" departPos="5.10" departSpeed="0.00" departDelay="0.00" arrival="233.00" arrivalLane="E_out_0" arrivalPos="489.60" arrivalSpeed="11.74" duration="89.00" routeLength="994.90" waitingTime="0.00" waitingCount="0" stopTime="0.00" timeLoss="7.09" rerouteNo="0" devices="tripinfo_f_W.8" vType="car" speedFactor="0.88" vaporized=""/>
    <tripinfo id="f_N.8" depart="144.00" departLane="N_in_0" departPos="5.10" departSpeed="0.00" departDelay="0.00" arrival="239.00" arrivalLane="S_out_0" arrivalPos="489.60" arrivalSpeed="12.61" duration="95.00" routeLength="994.90" waitingTime="12.00" waitingCount="1" stopTime="0.00" timeLoss="22.81" rerouteNo="0" devices="tripinfo_f_N.8" vType="car" speedFactor="1.14" vaporized=""/>
    <tripinfo id="f_S.8" depart="144.00" departLane="S_in_0" departPos="5.10" departSpeed="0.00" departDelay="0.00" arrival="240.00" arrivalLane="N_out_1" arrivalPos="489.60" arrivalSpeed="13.19" duration="96.00" routeLength="994.90" waitingTime="10.00" waitingCount="1" stopTime="0.00" timeLoss="23.67" rerouteNo="0" devices="tripinfo_f_S.8" vType="car" speedFactor="1.00" vaporized=""/>
    <tripinfo id="f_W_L.2" depart="147.00" departLane="W_in_0" departPos="5.10" departSpeed="0.00" departDelay="3.00" arrival="241.00" arrivalLane="N_out_0" arrivalPos="489.60" arrivalSpeed="11.54" duration="94.00" routeLength="993.45" waitingTime="0.00" waitingCount="0" stopTime="0.00" timeLoss="9.38" rerouteNo="0" devices="tripinfo_f_W_L.2" vType="car" speedFactor="0.85" vaporized=""/>
    <tripinfo id="f_S_L.2" depart="147.00" departLane="S_in_0" departPos="5.10" departSpeed="0.00" departDelay="3.00" arrival="241.00" arrivalLane="E_out_0" arrivalPos="489.60" arrivalSpeed="12.85" duration="94.00" routeLength="983.13" waitingTime="9.00" waitingCount="1" stopTime="0.00" timeLoss="22.27" rerouteNo="0" devices="tripinfo_f_S_L.2" vType="car" speedFactor="1.00" vaporized=""/>
    <tripinfo id="f_N_L.2" depart="147.00" departLane="N_in_0" departPos="5.10" departSpeed="0.00" departDelay="3.00" arrival="241.00" arrivalLane="W_out_0" arrivalPos="489.60" arrivalSpeed="13.68" duration="94.00" routeLength="983.13" waitingTime="10.00" waitingCount="1" stopTime="0.00" timeLoss="21.85" rerouteNo="0" devices="tripinfo_f_N_L.2" vType="car" speedFactor="1.02" vaporized=""/>
    <tripinfo id="f_S.9" depart="162.00" departLane="S_in_0" departPos="5.10" departSpeed="0.00" departDelay="0.00" arrival="247.00" arrivalLane="N_out_0" arrivalPos="489.60" arrivalSpeed="13.06" duration="85.00" routeLength="994.90" waitingTime="0.00" waitingCount="0" stopTime="0.00" timeLoss="12.71" rerouteNo="0" devices="tripinfo_f_S.9" vType="car" speedFactor="1.02" vaporized=""/>
    <tripinfo id="f_S_R.2" depart="150.00" departLane="S_in_0" departPos="5.10" departSpeed="0.00" departDelay="6.00" arrival="248.00" arrivalLane="W_out_0" arrivalPos="489.60" arrivalSpeed="12.13" duration="98.00" routeLength="993.45" waitingTime="3.00" waitingCount="1" stopTime="0.00" timeLoss="17.60" rerouteNo="0" devices="tripinfo_f_S_R.2" vType="car" speedFactor="0.90" vaporized=""/>
    <tripinfo id="f_N.9" depart="162.00" departLane="N_in_0" departPos="5.10" departSpeed="0.00" departDelay="0.00" arrival="249.00" arrivalLane="S_out_0" arrivalPos="489.60" arrivalSpeed="12.74" duration="87.00" routeLength="994.90" waitingTime="2.00" waitingCount="1" stopTime="0.00" timeLoss="13.56" rerouteNo="0" devices="tripinfo_f_N.9" vType="car" speedFactor="0.99" vaporized=""/>
    <tripinfo id="f_N_R.2" depart="150.00" departLane="N_in_0" departPos="5.10" departSpeed="0.00" departDelay="6.00" arrival="251.00" arrivalLane="E_out_0" arrivalPos="489.60" arrivalSpeed="13.38" duration="101.00" routeLength="993.45" waitingTime="10.00" waitingCount="2" stopTime="0.00" timeLoss="26.40" rerouteNo="0" devices="tripinfo_f_N_R.2" vType="car" speedFactor="0.97" vaporized=""/>
    <tripinfo id="f_W.9" depart="162.00" departLane="W_in_0" departPos="5.10" departSpeed="0.00" departDelay="0.00" arrival="256.00" arrivalLane="E_out_0" arrivalPos="489.60" arrivalSpeed="13.70" duration="94.00" routeLength="994.90" waitingTime="11.00" waitingCount="1" stopTime="0.00" timeLoss="21.62" rerouteNo="0" devices="tripinfo_f_W.9" vType="car" speedFactor="1.08" vaporized=""/>
    <tripinfo id="f_E.9" depart="162.00" departLane="E_in_0" departPos="5.10" departSpeed="0.00" departDelay="0.00" arrival="256.00" arrivalLane="W_out_0" arrivalPos="489.60" arrivalSpeed="13.78" duration="94.00" routeLength="994.90" waitingTime="10.00" waitingCount="1" stopTime="0.00" timeLoss="21.94" rerouteNo="0" devices="tripinfo_f_E.9" vType="car" speedFactor="1.12" vaporized=""/>
    <tripinfo id="f_W_R.2" depart="150.00" departLane="W_in_0" departPos="5.10" departSpeed="0.00" departDelay="6.00" arrival="262.00" arrivalLane="S_out_0" arrivalPos="489.60" arrivalSpeed="11.83" duration="112.00" routeLength="983.13" waitingTime="17.00" waitingCount="1" stopTime="0.00" timeLoss="28.25" rerouteNo="0" devices="tripinfo_f_W_R.2" vType="car" speedFactor="0.85" vaporized=""/>
    <tripinfo id="f_W.10" depart="180.00" departLane="W_in_0" departPos="5.10" departSpeed="0.00" departDelay="0.00" arrival="263.00" arrivalLane="E_out_0" arrivalPos="489.60" arrivalSpeed="12.23" duration="83.00" routeLength="994.90" waitingTime="0.00" waitingCount="0" stopTime="0.00" timeLoss="6.62" rerouteNo="0" devices="tripinfo_f_W.10" vType="car" speedFactor="0.94" vaporized=""/>
    <tripinfo id="f_E.10" depart="180.00" departLane="E_in_0" departPos="5.10" departSpeed="0.00" departDelay="0.00" arrival="269.00" arrivalLane="W_out_0" arrivalPos="489.60" arrivalSpeed="11.07" duration="89.00" routeLength="994.90" waitingTime="0.00" waitingCount="0" stopTime="0.00" timeLoss="7.48" rerouteNo="0" devices="tripinfo_f_E.10" vType="car" speedFactor="0.88" vaporized=""/>
    <tripinfo id="f_N.10" depart="180.00" departLane="N_in_0" departPos="5.10" departSpeed="0.00" departDelay="0.00" arrival="272.00" arrivalLane="S_out_0" arrivalPos="489.60" arrivalSpeed="12.06" duration="92.00" routeLength="994.90" waitingTime="2.00" waitingCount="1" stopTime="0.00" timeLoss="13.61" rerouteNo="0" devices="tripinfo_f_N.10" vType="car" speedFactor="0.91" vaporized=""/>
    <tripinfo id="f_S.10" depart="180.00" departLane="S_in_0" departPos="5.10" departSpeed="0.00" departDelay="0.00" arrival="273.00" arrivalLane="N_out_0" arrivalPos="489.60" arrivalSpeed="11.61" duration="93.00" routeLength="994.90" waitingTime="1.00" waitingCount="1" stopTime="0.00" timeLoss="13.57" rerouteNo="0" devices="tripinfo_f_S.10" vType="car" speedFactor="0.91" vaporized=""/>
    <tripinfo id="f_S.11" depart="198.00" departLane="S_in_0" departPos="5.10" departSpeed="0.00" departDelay="0.00" arrival="276.00" arrivalLane="N_out_0" arrivalPos="489.60" arrivalSpeed="13.14" duration="78.00" routeLength="994.90" waitingTime="0.00" waitingCount="0" stopTime="0.00" timeLoss="6.31" rerouteNo="0" devices="tripinfo_f_S.11" vType="car" speedFactor="1.02" vaporized=""/>
    <tripinfo id="f_N.11" depart="198.00" departLane="N_in_0" departPos="5.10" departSpeed="0.00" departDelay="0.00" arrival="279.00" arrivalLane="S_out_0" arrivalPos="489.60" arrivalSpeed="12.36" duration="81.00" routeLength="994.90" waitingTime="0.00" waitingCount="0" stopTime="0.00" timeLoss="6.67" rerouteNo="0" devices="tripinfo_f_N.11" vType="car" speedFactor="0.97" vaporized=""/>
    <tripinfo id="f_W.11" depart="198.00" departLane="W_in_0" departPos="5.10" departSpeed="0.00" departDelay="0.00" arrival="285.00" arrivalLane="E_out_0" arrivalPos="489.60" arrivalSpeed="13.52" duration="87.00" routeLength="994.90" waitingTime="3.00" waitingCount="1" stopTime="0.00" timeLoss="15.00" rerouteNo="0" devices="tripinfo_f_W.11" vType="car" speedFactor="1.04" vaporized=""/>
    <tripinfo id="f_E.11" depart="198.00" departLane="E_in_0" departPos="5.10" departSpeed="0.00" departDelay="0.00" arrival="285.00" arrivalLane="W_out_0" arrivalPos="489.60" arrivalSpeed="12.66" duration="87.00" routeLength="994.90" waitingTime="3.00" waitingCount="1" stopTime="0.00" timeLoss="15.00" rerouteNo="0" devices="tripinfo_f_E.11" vType="car" speedFactor="1.02" vaporized=""/>
    <tripinfo id="f_S.12" depart="216.00" departLane="S_in_0" departPos="5.10" departSpeed="0.00" departDelay="0.00" arrival="296.00" arrivalLane="N_out_0" arrivalPos="489.60" arrivalSpeed="13.80" duration="80.00" routeLength="994.90" waitingTime="0.00" waitingCount="0" stopTime="0.00" timeLoss="7.54" rerouteNo="0" devices="tripinfo_f_S.12" vType="car" speedFactor="1.01" vaporized=""/>
    <tripinfo id="f_N.12" depart="216.00" departLane="N_in_0" departPos="5.10" departSpeed="0.00" departDelay="0.00" arrival="296.00" arrivalLane="S_out_0" arrivalPos="489.60" arrivalSpeed="12.78" duration="80.00" routeLength="994.90" waitingTime="0.00" waitingCount="0" stopTime="0.00" timeLoss="7.59" rerouteNo="0" devices="tripinfo_f_N.12" vType="car" speedFactor="1.00" vaporized=""/>