<?xml version="1.0" encoding="UTF-8"?>

<!-- generated on 2025-12-31T09:48:36.491616+05:30 by Eclipse SUMO GUI 1.25.0
<sumoConfiguration xmlns:xsi="http://www.w3.org/2001/XMLSchema-instance" xsi:noNamespaceSchemaLocation="http://sumo.dlr.de/xsd/sumoConfiguration.xsd">

    <input>
        <net-file value="cross.net.xml"/>
        <route-files value="cross.rou.xml"/>
        <additional-files value="cross.add.xml"/>
    </input>

    <output>
        <tripinfo-output value="tripinfo.xml"/>
    </output>

    <time>
        <begin value="0"/>
        <end value="3600"/>
    </time>

    <traci_server>
        <remote-port value="63877"/>
    </traci_server>

    <gui_only>
        <start value="true"/>
    </gui_only>

</sumoConfiguration>
-->

<tripinfos xmlns:xsi="http://www.w3.org/2001/XMLSchema-instance" xsi:noNamespaceSchemaLocation="http://sumo.dlr.de/xsd/tripinfo_file.xsd">
    <tripinfo id="f_S.0" depart="0.00" departLane="S_in_0" departPos="5.10" departSpeed="0.00" departDelay="0.00" arrival="78.00" arrivalLane="N_out_0" arrivalPos="489.60" arrivalSpeed="13.64" duration="78.00" routeLength="994.90" waitingTime="0.00" waitingCount="0" stopTime="0.00" timeLoss="6.30" rerouteNo="0" devices="tripinfo_f_S.0" vType="car" speedFactor="1.05" vaporized=""/>
    <tripinfo id="f_W.0" depart="0.00" departLane="W_in_0" departPos="5.10" departSpeed="0.00" departDelay="0.00" arrival="87.00" arrivalLane="E_out_0" arrivalPos="489.60" arrivalSpeed="12.98" duration="87.00" routeLength="994.90" waitingTime="2.00" waitingCount="1" stopTime="0.00" timeLoss="15.06" rerouteNo="0" devices="tripinfo_f_W.0" vType="car" speedFactor="1.06" vaporized=""/>
    <tripinfo id="f_E.0" depart="0.00" departLane="E_in_0" departPos="5.10" departSpeed="0.00" departDelay="0.00" arrival="87.00" arrivalLane="W_out_0" arrivalPos="489.60" arrivalSpeed="13.88" duration="87.00" routeLength="994.90" waitingTime="4.00" waitingCount="1" stopTime="0.00" timeLoss="14.96" rerouteNo="0" devices="tripinfo_f_E.0" vType="car" speedFactor="1.08" vaporized=""/>
    <tripinfo id="f_W_R.0" depart="6.00" departLane="W_in_0" departPos="5.10" departSpeed="0.00" departDelay="6.00" arrival="89.00" arrivalLane="S_out_0" arrivalPos="489.60" arrivalSpeed="13.77" duration="83.00" routeLength="983.13" waitingTime="0.00" waitingCount="0" stopTime="0.00" timeLoss="10.94" rerouteNo="0" devices="tripinfo_f_W_R.0" vType="car" speedFactor="1.01" vaporized=""/>
    <tripinfo id="f_E_L.0" depart="3.00" departLane="E_in_0" departPos="5.10" departSpeed="0.00" departDelay="3.00" arrival="92.00" arrivalLane="S_out_0" arrivalPos="489.60" arrivalSpeed="13.67" duration="89.00" routeLength="993.45" waitingTime="3.00" waitingCount="1" stopTime="0.00" timeLoss="16.19" rerouteNo="0" devices="tripinfo_f_E_L.0" vType="car" speedFactor="1.03" vaporized=""/>
    <tripinfo id="f_W_L.0" depart="3.00" departLane="W_in_0" departPos="5.10" departSpeed="0.00" departDelay="3.00" arrival="93.00" arrivalLane="N_out_0" arrivalPos="489.60" arrivalSpeed="12.40" duration="90.00" routeLength="993.45" waitingTime="1.00" waitingCount="1" stopTime="0.00" timeLoss="12.14" rerouteNo="0" devices="tripinfo_f_W_L.0" vType="car" speedFactor="0.94" vaporized=""/>
    <tripinfo id="f_W.1" depart="18.00" departLane="W_in_0" departPos="5.10" departSpeed="0.00" departDelay="0.00" arrival="97.00" arrivalLane="E_out_0" arrivalPos="489.60" arrivalSpeed="13.38" duration="79.00" routeLength="994.90" waitingTime="0.00" waitingCount="0" stopTime="0.00" timeLoss="6.54" rerouteNo="0" devices="tripinfo_f_W.1" vType="car" speedFactor="1.05" vaporized=""/>
    <tripinfo id="f_E.1" depart="18.00" departLane="E_in_0" departPos="5.10" departSpeed="0.00" departDelay="0.00" arrival="97.00" arrivalLane="W_out_0" arrivalPos="489.60" arrivalSpeed="13.40" duration="79.00" routeLength="994.90" waitingTime="0.00" waitingCount="0" stopTime="0.00" timeLoss="6.70" rerouteNo="0" devices="tripinfo_f_E.1" vType="car" speedFactor="1.12" vaporized=""/>
    <tripinfo id="f_E_R.0" depart="6.00" departLane="E_in_0" departPos="5.10" departSpeed="0.00" departDelay="6.00" arrival="101.00" arrivalLane="N_out_0" arrivalPos="489.60" arrivalSpeed="11.00" duration="95.00" routeLength="983.13" waitingTime="0.00" waitingCount="0" stopTime="0.00" timeLoss="8.03" rerouteNo="0" devices="tripinfo_f_E_R.0" vType="car" speedFactor="0.83" vaporized=""/>
    <tripinfo id="f_N_R.0" depart="6.00" departLane="N_in_0" departPos="5.10" departSpeed="0.00" departDelay="6.00" arrival="102.00" arrivalLane="E_out_0" arrivalPos="489.60" arrivalSpeed="13.13" duration="96.00" routeLength="993.45" waitingTime="13.00" waitingCount="1" stopTime="0.00" timeLoss="23.47" rerouteNo="0" devices="tripinfo_f_N_R.0" vType="car" speedFactor="1.03" vaporized=""/>
    <tripinfo id="f_N_L.0" depart="3.00" departLane="N_in_0" departPos="5.10" departSpeed="0.00" departDelay="3.00" arrival="104.00" arrivalLane="W_out_0" arrivalPos="489.60" arrivalSpeed="13.14" duration="101.00" routeLength="983.13" waitingTime="11.00" waitingCount="1" stopTime="0.00" timeLoss="28.74" rerouteNo="0" devices="tripinfo_f_N_L.0" vType="car" speedFactor="1.09" vaporized=""/>
    <tripinfo id="f_S.1" depart="18.00" departLane="S_in_0" departPos="5.10" departSpeed="0.00" departDelay="0.00" arrival="105.00" arrivalLane="N_out_0" arrivalPos="489.60" arrivalSpeed="13.44" duration="87.00" routeLength="994.90" waitingTime="1.00" waitingCount="1" stopTime="0.00" timeLoss="14.35" rerouteNo="0" devices="tripinfo_f_S.1" vType="car" speedFactor="0.99" vaporized=""/>
    <tripinfo id="f_S_L.0" depart="3.00" departLane="S_in_0" departPos="5.10" departSpeed="0.00" departDelay="3.00" arrival="107.00" arrivalLane="E_out_0" arrivalPos="489.60" arrivalSpeed="11.84" duration="104.00" routeLength="983.13" waitingTime="10.00" waitingCount="1" stopTime="0.00" timeLoss="22.74" rerouteNo="0" devices="tripinfo_f_S_L.0" vType="car" speedFactor="0.89" vaporized=""/>
    <tripinfo id="f_N.1" depart="18.00" departLane="N_in_0" departPos="5.10" departSpeed="0.00" departDelay="0.00" arrival="107.00" arrivalLane="S_out_0" arrivalPos="489.60" arrivalSpeed="12.30" duration="89.00" routeLength="994.90" waitingTime="0.00" waitingCount="0" stopTime="0.00" timeLoss="11.06" rerouteNo="0" devices="tripinfo_f_N.1" vType="car" speedFactor="0.93" vaporized=""/>
    <tripinfo id="f_N.0" depart="0.00" departLane="N_in_0" departPos="5.10" departSpeed="0.00" departDelay="0.00" arrival="108.00" arrivalLane="S_out_0" arrivalPos="489.60" arrivalSpeed="10.97" duration="108.00" routeLength="994.90" waitingTime="12.00" waitingCount="1" stopTime="0.00" timeLoss="24.24" rerouteNo="0" devices="tripinfo_f_N.0" vType="car" speedFactor="0.86" vaporized=""/>
    <tripinfo id="f_S_R.0" depart="6.00" departLane="S_in_0" departPos="5.10" departSpeed="0.00" departDelay="6.00" arrival="111.00" arrivalLane="W_out_0" arrivalPos="489.60" arrivalSpeed="12.44" duration="105.00" routeLength="993.45" waitingTime="12.00" waitingCount="2" stopTime="0.00" timeLoss="27.37" rerouteNo="0" devices="tripinfo_f_S_R.0" vType="car" speedFactor="0.94" vaporized=""/>
    <tripinfo id="f_E.2" depart="36.00" departLane="E_in_0" departPos="5.10" departSpeed="0.00" departDelay="0.00" arrival="119.00" arrivalLane="W_out_0" arrivalPos="489.60" arrivalSpeed="12.50" duration="83.00" routeLength="994.90" waitingTime="0.00" waitingCount="0" stopTime="0.00" timeLoss="6.74" rerouteNo="0" devices="tripinfo_f_E.2" vType="car" speedFactor="0.94" vaporized=""/>
    <tripinfo id="f_W.2" depart="36.00" departLane="W_in_0" departPos="5.10" departSpeed="0.00" departDelay="0.00" arrival="125.00" arrivalLane="E_out_0" arrivalPos="489.60" arrivalSpeed="11.22" duration="89.00" routeLength="994.90" waitingTime="0.00" waitingCount="0" stopTime="0.00" timeLoss="7.25" rerouteNo="0" devices="tripinfo_f_W.2" vType="car" speedFactor="0.88" vaporized=""/>
    <tripinfo id="f_N.2" depart="36.00" departLane="N_in_0" departPos="5.10" departSpeed="0.00" departDelay="0.00" arrival="130.00" arrivalLane="S_out_0" arrivalPos="489.60" arrivalSpeed="13.57" duration="94.00" routeLength="994.90" waitingTime="10.00" waitingCount="1" stopTime="0.00" timeLoss="21.86" rerouteNo="0" devices="tripinfo_f_N.2" vType="car" speedFactor="1.16" vaporized=""/>
    <tripinfo id="f_S.2" depart="36.00" departLane="S_in_0" departPos="5.10" departSpeed="0.00" departDelay="0.00" arrival="133.00" arrivalLane="N_out_0" arrivalPos="489.60" arrivalSpeed="13.00" duration="97.00" routeLength="994.90" waitingTime="8.00" waitingCount="1" stopTime="0.00" timeLoss="19.57" rerouteNo="0" devices="tripinfo_f_S.2" vType="car" speedFactor="0.94" vaporized=""/>
    <tripinfo id="f_S.3" depart="54.00" departLane="S_in_0" departPos="5.10" departSpeed="0.00" departDelay="0.00" arrival="134.00" arrivalLane="N_out_0" arrivalPos="489.60" arrivalSpeed="12.26" duration="80.00" routeLength="994.90" waitingTime="0.00" waitingCount="0" stopTime="0.00" timeLoss="6.48" rerouteNo="0" devices="tripinfo_f_S.3" vType="car" speedFactor="0.97" vaporized=""/>
    <tripinfo id="f_N.3" depart="54.00" departLane="N_in_0" departPos="5.10" departSpeed="0.00" departDelay="0.00" arrival="142.00" arrivalLane="S_out_0" arrivalPos="489.60" arrivalSpeed="11.84" duration="88.00" routeLength="994.90" waitingTime="0.00" waitingCount="0" stopTime="0.00" timeLoss="6.71" rerouteNo="0" devices="tripinfo_f_N.3" vType="car" speedFactor="0.89" vaporized=""/>
    <tripinfo id="f_W.3" depart="54.00" departLane="W_in_0" departPos="5.10" departSpeed="0.00" departDelay="0.00" arrival="145.00" arrivalLane="E_out_0" arrivalPos="489.60" arrivalSpeed="13.54" duration="91.00" routeLength="994.90" waitingTime="7.00" waitingCount="1" stopTime="0.00" timeLoss="18.62" rerouteNo="0" devices="tripinfo_f_W.3" vType="car" speedFactor="1.02" vaporized=""/>
    <tripinfo id="f_E.3" depart="54.00" departLane="E_in_0" departPos="5.10" departSpeed="0.00" departDelay="0.00" arrival="145.00" arrivalLane="W_out_0" arrivalPos="489.60" arrivalSpeed="13.83" duration="91.00" routeLength="994.90" waitingTime="6.00" waitingCount="1" stopTime="0.00" timeLoss="18.48" rerouteNo="0" devices="tripinfo_f_E.3" vType="car" speedFactor="1.01" vaporized=""/>
    <tripinfo id="f_E_L.1" depart="75.00" departLane="E_in_0" departPos="5.10" departSpeed="0.00" departDelay="3.00" arrival="154.00" arrivalLane="S_out_0" arrivalPos="489.60" arrivalSpeed="13.18" duration="79.00" routeLength="993.45" waitingTime="0.00" waitingCount="0" stopTime="0.00" timeLoss="6.79" rerouteNo="0" devices="tripinfo_f_E_L.1" vType="car" speedFactor="1.13" vaporized=""/>
    <tripinfo id="f_E.4" depart="72.00" departLane="E_in_0" departPos="5.10" departSpeed="0.00" departDelay="0.00" arrival="155.00" arrivalLane="W_out_0" arrivalPos="489.60" arrivalSpeed="12.15" duration="83.00" routeLength="994.90" waitingTime="0.00" waitingCount="0" stopTime="0.00" timeLoss="6.69" rerouteNo="0" devices="tripinfo_f_E.4" vType="car" speedFactor="0.95" vaporized=""/>
    <tripinfo id="f_S.4" depart="72.00" departLane="S_in_0" departPos="5.10" departSpeed="0.00" departDelay="0.00" arrival="159.00" arrivalLane="N_out_0" arrivalPos="489.60" arrivalSpeed="13.11" duration="87.00" routeLength="994.90" waitingTime="1.00" waitingCount="1" stopTime="0.00" timeLoss="14.99" rerouteNo="0" devices="tripinfo_f_S.4" vType="car" speedFactor="1.18" vaporized=""/>
    <tripinfo id="f_N.4" depart="72.00" departLane="N_in_0" departPos="5.10" departSpeed="0.00" departDelay="0.00" arrival="159.00" arrivalLane="S_out_0" arrivalPos="489.60" arrivalSpeed="13.10" duration="87.00" routeLength="994.90" waitingTime="4.00" waitingCount="1" stopTime="0.00" timeLoss="15.06" rerouteNo="0" devices="tripinfo_f_N.4" vType="car" speedFactor="1.17" vaporized=""/>
    <tripinfo id="f_S_L.1" depart="75.00" departLane="S_in_0" departPos="5.10" departSpeed="0.00" departDelay="3.00" arrival="160.00" arrivalLane="E_out_0" arrivalPos="489.60" arrivalSpeed="13.59" duration="85.00" routeLength="983.13" waitingTime="0.00" waitingCount="0" stopTime="0.00" timeLoss="13.22" rerouteNo="0" devices="tripinfo_f_S_L.1" vType="car" speedFactor="1.15" vaporized=""/>
    <tripinfo id="f_N_L.1" depart="75.00" departLane="N_in_0" departPos="5.10" departSpeed="0.00" departDelay="3.00" arrival="161.00" arrivalLane="W_out_0" arrivalPos="489.60" arrivalSpeed="13.68" duration="86.00" routeLength="983.13" waitingTime="0.00" waitingCount="0" stopTime="0.00" timeLoss="13.21" rerouteNo="0" devices="tripinfo_f_N_L.1" vType="car" speedFactor="0.99" vaporized=""/>
    <tripinfo id="f_N_R.1" depart="78.00" departLane="N_in_0" departPos="5.10" departSpeed="0.00" departDelay="6.00" arrival="162.00" arrivalLane="E_out_1" arrivalPos="489.60" arrivalSpeed="12.60" duration="84.00" routeLength="993.45" waitingTime="0.00" waitingCount="0" stopTime="0.00" timeLoss="11.20" rerouteNo="0" devices="tripinfo_f_N_R.1" vType="car" speedFactor="1.02" vaporized=""/>
    <tripinfo id="f_S_R.1" depart="78.00" departLane="S_in_0" departPos="5.10" departSpeed="0.00" departDelay="6.00" arrival="163.00" arrivalLane="W_out_0" arrivalPos="489.60" arrivalSpeed="13.54" duration="85.00" routeLength="993.45" waitingTime="2.00" waitingCount="1" stopTime="0.00" timeLoss="12.06" rerouteNo="0" devices="tripinfo_f_S_R.1" vType="car" speedFactor="1.01" vaporized=""/>
    <tripinfo id="f_S.5" depart="90.00" departLane="S_in_0" departPos="5.10" departSpeed="0.00" departDelay="0.00" arrival="168.00" arrivalLane="N_out_0" arrivalPos="489.60" arrivalSpeed="12.75" duration="78.00" routeLength="994.90" waitingTime="0.00" waitingCount="0" stopTime="0.00" timeLoss="6.33" rerouteNo="0" devices="tripinfo_f_S.5" vType="car" speedFactor="1.10" vaporized=""/>
    <tripinfo id="f_E.5" depart="90.00" departLane="E_in_0" departPos="5.10" departSpeed="0.00" departDelay="0.00" arrival="176.00" arrivalLane="W_out_0" arrivalPos="489.60" arrivalSpeed="12.71" duration="86.00" routeLength="994.90" waitingTime="1.00" waitingCount="1" stopTime="0.00" timeLoss="13.74" rerouteNo="0" devices="tripinfo_f_E.5" vType="car" speedFactor="1.18" vaporized=""/>
    <tripinfo id="f_E_R.1" depart="78.00" departLane="E_in_0" departPos="5.10" departSpeed="0.00" departDelay="6.00" arrival="178.00" arrivalLane="N_out_0" arrivalPos="489.60" arrivalSpeed="12.13" duration="100.00" routeLength="983.13" waitingTime="10.00" waitingCount="1" stopTime="0.00" timeLoss="23.04" rerouteNo="0" devices="tripinfo_f_E_R.1" vType="car" speedFactor="0.93" vaporized=""/>
    <tripinfo id="f_W_R.1" depart="78.00" departLane="W_in_0" departPos="5.10" departSpeed="0.00" departDelay="6.00" arrival="182.00" arrivalLane="S_out_0" arrivalPos="489.60" arrivalSpeed="12.09" duration="104.00" routeLength="983.13" waitingTime="11.00" waitingCount="1" stopTime="0.00" timeLoss="25.22" rerouteNo="0" devices="tripinfo_f_W_R.1" vType="car" speedFactor="0.92" vaporized=""/>
    <tripinfo id="f_W.5" depart="90.00" departLane="W_in_0" departPos="5.10" departSpeed="0.00" departDelay="0.00" arrival="182.00" arrivalLane="E_out_0" arrivalPos="489.60" arrivalSpeed="12.43" duration="92.00" routeLength="994.90" waitingTime="2.00" waitingCount="1" stopTime="0.00" timeLoss="18.39" rerouteNo="0" devices="tripinfo_f_W.5" vType="car" speedFactor="0.97" vaporized=""/>
    <tripinfo id="f_W.4" depart="72.00" departLane="W_in_0" departPos="5.10" departSpeed="0.00" departDelay="0.00" arrival="184.00" arrivalLane="E_out_0" arrivalPos="489.60" arrivalSpeed="11.29" duration="112.00" routeLength="994.90" waitingTime="13.00" waitingCount="1" stopTime="0.00" timeLoss="24.72" rerouteNo="0" devices="tripinfo_f_W.4" vType="car" speedFactor="0.83" vaporized=""/>
    <tripinfo id="f_W_L.1" depart="75.00" departLane="W_in_0" departPos="5.10" departSpeed="0.00" departDelay="3.00" arrival="185.00" arrivalLane="N_out_0" arrivalPos="489.60" arrivalSpeed="11.26" duration="110.00" routeLength="993.45" waitingTime="11.00" waitingCount="1" stopTime="0.00" timeLoss="26.80" rerouteNo="0" devices="tripinfo_f_W_L.1" vType="car" speedFactor="0.87" vaporized=""/>
    <tripinfo id="f_S.6" depart="108.00" departLane="S_in_0" departPos="5.10" departSpeed="0.00" departDelay="0.00" arrival="190.00" arrivalLane="N_out_0" arrivalPos="489.60" arrivalSpeed="12.74" duration="82.00" routeLength="994.90" waitingTime="0.00" waitingCount="0" stopTime="0.00" timeLoss="9.73" rerouteNo="0" devices="tripinfo_f_S.6" vType="car" speedFactor="1.09" vaporized=""/>
    <tripinfo id="f_N.6" depart="108.00" departLane="N_in_0" departPos="5.10" departSpeed="0.00" departDelay="0.00" arrival="191.00" arrivalLane="S_out_0" arrivalPos="489.60" arrivalSpeed="13.42" duration="83.00" routeLength="994.90" waitingTime="0.00" waitingCount="0" stopTime="0.00" timeLoss="11.37" rerouteNo="0" devices="tripinfo_f_N.6" vType="car" speedFactor="1.04" vaporized=""/>
    <tripinfo id="f_N.5" depart="90.00" departLane="N_in_0" departPos="5.10" departSpeed="0.00" departDelay="0.00" arrival="196.00" arrivalLane="S_out_0" arrivalPos="489.60" arrivalSpeed="11.26" duration="106.00" routeLength="994.90" waitingTime="13.00" waitingCount="1" stopTime="0.00" timeLoss="25.64" rerouteNo="0" devices="tripinfo_f_N.5" vType="car" speedFactor="0.90" vaporized=""/>
    <tripinfo id="f_W.6" depart="108.00" departLane="W_in_0" departPos="5.10" departSpeed="0.00" departDelay="0.00" arrival="205.00" arrivalLane="E_out_0" arrivalPos="489.60" arrivalSpeed="13.10" duration="97.00" routeLength="994.90" waitingTime="13.00" waitingCount="1" stopTime="0.00" timeLoss="25.19" rerouteNo="0" devices="tripinfo_f_W.6" vType="car" speedFactor="1.03" vaporized=""/>
    <tripinfo id="f_W.7" depart="126.00" departLane="W_in_0" departPos="5.10" departSpeed="0.00" departDelay="0.00" arrival="205.00" arrivalLane="E_out_1" arrivalPos="489.60" arrivalSpeed="13.86" duration="79.00" routeLength="994.90" waitingTime="0.00" waitingCount="0" stopTime="0.00" timeLoss="6.48" rerouteNo="0" devices="tripinfo_f_W.7" vType="car" speedFactor="1.04" vaporized=""/>
    <tripinfo id="f_E.7" depart="126.00" departLane="E_in_0" departPos="5.10" departSpeed="0.00" departDelay="0.00" arrival="205.00" arrivalLane="W_out_0" arrivalPos="489.60" arrivalSpeed="13.81" duration="79.00" routeLength="994.90" waitingTime="0.00" waitingCount="0" stopTime="0.00" timeLoss="6.76" rerouteNo="0" devices="tripinfo_f_E.7" vType="car" speedFactor="1.09" vaporized=""/>
    <tripinfo id="f_E.6" depart="108.00" departLane="E_in_0" departPos="5.10" departSpeed="0.00" departDelay="0.00" arrival="207.00" arrivalLane="W_out_0" arrivalPos="489.60" arrivalSpeed="12.45" duration="99.00" routeLength="994.90" waitingTime="12.00" waitingCount="1" stopTime="0.00" timeLoss="23.46" rerouteNo="0" devices="tripinfo_f_E.6" vType="car" speedFactor="0.96" vaporized=""/>
    <tripinfo id="f_S.7" depart="126.00" departLane="S_in_0" departPos="5.10" departSpeed="0.00" departDelay="0.00" arrival="220.00" arrivalLane="N_out_0" arrivalPos="489.60" arrivalSpeed="13.25" duration="94.00" routeLength="994.90" waitingTime="10.00" waitingCount="1" stopTime="0.00" timeLoss="21.68" rerouteNo="0" devices="tripinfo_f_S.7" vType="car" speedFactor="1.00" vaporized=""/>
    <tripinfo id="f_S.8" depart="144.00" departLane="S_in_0" departPos="5.10" departSpeed="0.00" departDelay="0.00" arrival="222.00" arrivalLane="N_out_0" arrivalPos="489.60" arrivalSpeed="12.64" duration="78.00" routeLength="994.90" waitingTime="0.00" waitingCount="0" stopTime="0.00" timeLoss="6.27" rerouteNo="0" devices="tripinfo_f_S.8" vType="car" speedFactor="1.00" vaporized=""/>
    <tripinfo id="f_N.8" depart="144.00" departLane="N_in_0" departPos="5.10" departSpeed="0.00" departDelay="0.00" arrival="223.00" arrivalLane="S_out_1" arrivalPos="489.60" arrivalSpeed="13.40" duration="79.00" routeLength="994.90" waitingTime="0.00" waitingCount="0" stopTime="0.00" timeLoss="6.48" rerouteNo="0" devices="tripinfo_f_N.8" vType="car" speedFactor="1.14" vaporized=""/>
    <tripinfo id="f_N.7" depart="126.00" departLane="N_in_0" departPos="5.10" departSpeed="0.00" departDelay="0.00" arrival="224.00" arrivalLane="S_out_0" arrivalPos="489.60" arrivalSpeed="11.32" duration="98.00" routeLength="994.90" waitingTime="6.00" waitingCount="1" stopTime="0.00" timeLoss="18.09" rerouteNo="0" devices="tripinfo_f_N.7" vType="car" speedFactor="0.90" vaporized=""/>
    <tripinfo id="f_N_L.2" depart="147.00" departLane="N_in_0" departPos="5.10" departSpeed="0.00" departDelay="3.00" arrival="227.00" arrivalLane="W_out_0" arrivalPos="489.60" arrivalSpeed="13.02" duration="80.00" routeLength="983.13" waitingTime="0.00" waitingCount="0" stopTime="0.00" timeLoss="7.63" rerouteNo="0" devices="tripinfo_f_N_L.2" vType="car" speedFactor="1.02" vaporized=""/>
    <tripinfo id="f_S_L.2" depart="147.00" departLane="S_in_0" departPos="5.10" departSpeed="0.00" departDelay="3.00" arrival="228.00" arrivalLane="E_out_0" arrivalPos="489.60" arrivalSpeed="12.68" duration="81.00" routeLength="983.13" waitingTime="0.00" waitingCount="0" stopTime="0.00" timeLoss="8.67" rerouteNo="0" devices="tripinfo_f_S_L.2" vType="car" speedFactor="1.00" vaporized=""/>
    <tripinfo id="f_E.8" depart="144.00" departLane="E_in_0" departPos="5.10" departSpeed="0.00" departDelay="0.00" arrival="235.00" arrivalLane="W_out_0" arrivalPos="489.60" arrivalSpeed="13.83" duration="91.00" routeLength="994.90" waitingTime="7.00" waitingCount="1" stopTime="0.00" timeLoss="18.91" rerouteNo="0" devices="tripinfo_f_E.8" vType="car" speedFactor="1.17" vaporized=""/>
    <tripinfo id="f_E_R.2" depart="150.00" departLane="E_in_0" departPos="5.10" departSpeed="0.00" departDelay="6.00" arrival="237.00" arrivalLane="N_out_0" arrivalPos="489.60" arrivalSpeed="13.22" duration="87.00" routeLength="983.13" waitingTime="3.00" waitingCount="1" stopTime="0.00" timeLoss="14.62" rerouteNo="0" devices="tripinfo_f_E_R.2" vType="car" speedFactor="1.10" vaporized=""/>
    <tripinfo id="f_E_L.2" depart="147.00" departLane="E_in_0" departPos="5.10" departSpeed="0.00" departDelay="3.00" arrival="238.00" arrivalLane="S_out_0" arrivalPos="489.60" arrivalSpeed="12.78" duration="91.00" routeLength="993.45" waitingTime="7.00" waitingCount="2" stopTime="0.00" timeLoss="18.70" rerouteNo="0" devices="tripinfo_f_E_L.2" vType="car" speedFactor="1.02" vaporized=""/>
    <tripinfo id="f_W.8" depart="144.00" departLane="W_in_0" departPos="5.10" departSpeed="0.00" departDelay="0.00" arrival="240.00" arrivalLane="E_out_0" arrivalPos="489.60" arrivalSpeed="11.64" duration="96.00" routeLength="994.90" waitingTime="3.00" waitingCount="1" stopTime="0.00" timeLoss="14.21" rerouteNo="0" devices="tripinfo_f_W.8" vType="car" speedFactor="0.88" vaporized=""/>
    <tripinfo id="f_E.9" depart="162.00" departLane="E_in_0" departPos="5.10" departSpeed="0.00" departDelay="0.00" arrival="240.00" arrivalLane="W_out_0" arrivalPos="489.60" arrivalSpeed="12.63" duration="78.00" routeLength="994.90" waitingTime="0.00" waitingCount="0" stopTime="0.00" timeLoss="6.29" rerouteNo="0" devices="tripinfo_f_E.9" vType="car" speedFactor="1.12" vaporized=""/>
    <tripinfo id="f_W.9" depart="162.00" departLane="W_in_0" departPos="5.10" departSpeed="0.00" departDelay="0.00" arrival="241.00" arrivalLane="E_out_1" arrivalPos="489.60" arrivalSpeed="13.22" duration="79.00" routeLength="994.90" waitingTime="0.00" waitingCount="0" stopTime="0.00" timeLoss="6.54" rerouteNo="0" devices="tripinfo_f_W.9" vType="car" speedFactor="1.08" vaporized=""/>
    <tripinfo id="f_W_R.2" depart="150.00" departLane="W_in_0" departPos="5.10" departSpeed="0.00" departDelay="6.00" arrival="244.00" arrivalLane="S_out_0" arrivalPos="489.60" arrivalSpeed="11.39" duration="94.00" routeLength="983.13" waitingTime="0.00" waitingCount="0" stopTime="0.00" timeLoss="9.88" rerouteNo="0" devices="tripinfo_f_W_R.2" vType="car" speedFactor="0.85" vaporized=""/>
    <tripinfo id="f_S.9" depart="162.00" departLane="S_in_0" departPos="5.10" departSpeed="0.00" departDelay="0.00" arrival="250.00" arrivalLane="N_out_1" arrivalPos="489.60" arrivalSpeed="13.05" duration="88.00" routeLength="994.90" waitingTime="4.00" waitingCount="1" stopTime="0.00" timeLoss="16.02" rerouteNo="0" devices="tripinfo_f_S.9" vType="car" speedFactor="1.02" vaporized=""/>
    <tripinfo id="f_N.9" depart="162.00" departLane="N_in_0" departPos="5.10" departSpeed="0.00" departDelay="0.00" arrival="250.00" arrivalLane="S_out_0" arrivalPos="489.60" arrivalSpeed="12.84" duration="88.00" routeLength="994.90" waitingTime="3.00" waitingCount="1" stopTime="0.00" timeLoss="15.25" rerouteNo="0" devices="tripinfo_f_N.9" vType="car" speedFactor="0.99" vaporized=""/>
    <tripinfo id="f_W_L.2" depart="147.00" departLane="W_in_0" departPos="5.10" departSpeed="0.00" departDelay="3.00" arrival="251.00" arrivalLane="N_out_0" arrivalPos="489.60" arrivalSpeed="11.23" duration="104.00" routeLength="993.45" waitingTime="6.00" waitingCount="1" stopTime="0.00" timeLoss="18.75" rerouteNo="0" devices="tripinfo_f_W_L.2" vType="car" speedFactor="0.85" vaporized=""/>
    <tripinfo id="f_N_R.2" depart="150.00" departLane="N_in_0" departPos="5.10" departSpeed="0.00" departDelay="6.00" arrival="255.00" arrivalLane="E_out_0" arrivalPos="489.60" arrivalSpeed="13.38" duration="105.00" routeLength="993.45" waitingTime="18.00" waitingCount="2" stopTime="0.00" timeLoss="30.63" rerouteNo="0" devices="tripinfo_f_N_R.2" vType="car" speedFactor="0.97" vaporized=""/>
    <tripinfo id="f_S_R.2" depart="150.00" departLane="S_in_0" departPos="5.10" departSpeed="0.00" departDelay="6.00" arrival="257.00" arrivalLane="W_out_0" arrivalPos="489.60" arrivalSpeed="12.43" duration="107.00" routeLength="993.45" waitingTime="10.00" waitingCount="1" stopTime="0.00" timeLoss="26.75" rerouteNo="0" devices="tripinfo_f_S_R.2" vType="car" speedFactor="0.90" vaporized=""/>
    <tripinfo id="f_N.10" depart="180.00" departLane="N_in_0" departPos="5.10" departSpeed="0.00" departDelay="0.00" arrival="265.00" arrivalLane="S_out_0" arrivalPos="489.60" arrivalSpeed="12.36" duration="85.00" routeLength="994.90" waitingTime="0.00" waitingCount="0" stopTime="0.00" timeLoss="6.37" rerouteNo="0" devices="tripinfo_f_N.10" vType="car" speedFactor="0.91" vaporized=""/>
    <tripinfo id="f_W.10" depart="180.00" departLane="W_in_0" departPos="5.10" departSpeed="0.00" departDelay="0.00" arrival="270.00" arrivalLane="E_out_0" arrivalPos="489.60" arrivalSpeed="12.93" duration="90.00" routeLength="994.90" waitingTime="2.00" waitingCount="1" stopTime="0.00" timeLoss="12.82" rerouteNo="0" devices="tripinfo_f_W.10" vType="car" speedFactor="0.94" vaporized=""/>
    <tripinfo id="f_E.10" depart="180.00" departLane="E_in_0" departPos="5.10" departSpeed="0.00" departDelay="0.00" arrival="271.00" arrivalLane="W_out_0" arrivalPos="489.60" arrivalSpeed="11.50" duration="91.00" routeLength="994.90" waitingTime="0.00" waitingCount="0" stopTime="0.00" timeLoss="9.22" rerouteNo="0" devices="tripinfo_f_E.10" vType="car" speedFactor="0.88" vaporized=""/>
    <tripinfo id="f_W.11" depart="198.00" departLane="W_in_0" departPos="5.10" departSpeed="0.00" departDelay="0.00" arrival="276.00" arrivalLane="E_out_0" arrivalPos="489.60" arrivalSpeed="13.67" duration="78.00" routeLength="994.90" waitingTime="0.00" waitingCount="0" stopTime="0.00" timeLoss="6.38" rerouteNo="0" devices="tripinfo_f_W.11" vType="car" speedFactor="1.04" vaporized=""/>
    <tripinfo id="f_E.11" depart="198.00" departLane="E_in_0" departPos="5.10" departSpeed="0.00" departDelay="0.00" arrival="277.00" arrivalLane="W_out_0" arrivalPos="489.60" arrivalSpeed="12.73" duration="79.00" routeLength="994.90" waitingTime="0.00" waitingCount="0" stopTime="0.00" timeLoss="6.68" rerouteNo="0" devices="tripinfo_f_E.11" vType="car" speedFactor="1.02" vaporized=""/>
    <tripinfo id="f_S.11" depart="198.00" departLane="S_in_0" departPos="5.10" departSpeed="0.00" departDelay="0.00" arrival="284.00" arrivalLane="N_out_0" arrivalPos="489.60" arrivalSpeed="13.26" duration="86.00" routeLength="994.90" waitingTime="3.00" waitingCount="1" stopTime="0.00" timeLoss="14.43" rerouteNo="0" devices="tripinfo_f_S.11" vType="car" speedFactor="1.02" vaporized=""/>
    <tripinfo id="f_N.11" depart="198.00" departLane="N_in_0" departPos="5.10" departSpeed="0.00" departDelay="0.00" arrival="286.00" arrivalLane="S_out_0" arrivalPos="489.60" arrivalSpeed="13.08" duration="88.00" routeLength="994.90" waitingTime="1.00" waitingCount="1" stopTime="0.00" timeLoss="13.83" rerouteNo="0" devices="tripinfo_f_N.11" vType="car" speedFactor="0.97" vaporized=""/>
    <tripinfo id="f_S.10" depart="180.00" departLane="S_in_0" departPos="5.10" departSpeed="0.00" departDelay="0.00" arrival="289.00" arrivalLane="N_out_0" arrivalPos="489.60" arrivalSpeed="12.17" duration="109.00" routeLength="994.90" waitingTime="18.00" waitingCount="1" stopTime="0.00" timeLoss="29.96" rerouteNo="0" devices="tripinfo_f_S.10" vType="car" speedFactor="0.91" vaporized=""/>
    <tripinfo id="f_S.12" depart="216.00" departLane="S_in_0" departPos="5.10" departSpeed="0.00" departDelay="0.00" arrival="294.00" arrivalLane="N_out_0" arrivalPos="489.60" arrivalSpeed="13.21" duration="78.00" routeLength="994.90" waitingTime="0.00" waitingCount="0" stopTime="0.00" timeLoss="6.27" rerouteNo="0" devices="tripinfo_f_S.12" vType="car" speedFactor="1.01" vaporized=""/>
    <tripinfo id="f_N.12" depart="216.00" departLane="N_in_0" departPos="5.10" departSpeed="0.00" departDelay="0.00" arrival="295.00" arrivalLane="S_out_0" arrivalPos="489.60" arrivalSpeed="12.72" duration="79.00" routeLength="994.90" waitingTime="0.00" waitingCount="0" stopTime="0.00" timeLoss="6.45" rerouteNo="0" devices="tripinfo_f_N.12" vType="car" speedFactor="1.00" vaporized=""/>